version 2
run General-0-20150401-11:07:13-20495
attr configname General
attr datetime 20150401-11:07:13
attr experiment General
attr inifile omnetpp.ini
attr iterationvars ""
attr iterationvars2 $repetition=0
attr measurement ""
attr network mIPv6NetworkExample
attr processid 20495
attr repetition 0
attr replication #0
attr resultdir results
attr runnumber 0
attr seedset 1

vector 20  mIPv6NetworkExample.Home_Agent.eth[0].queue.pauseQueue  queueLength:vector  ETV
attr interpolationmode  sample-hold
attr title  "queue length, vector"
vector 24  mIPv6NetworkExample.Home_Agent.eth[0].queue.dataQueue  queueLength:vector  ETV
attr interpolationmode  sample-hold
attr title  "queue length, vector"
vector 40  mIPv6NetworkExample.Home_Agent.eth[1].queue.pauseQueue  queueLength:vector  ETV
attr interpolationmode  sample-hold
attr title  "queue length, vector"
vector 44  mIPv6NetworkExample.Home_Agent.eth[1].queue.dataQueue  queueLength:vector  ETV
attr interpolationmode  sample-hold
attr title  "queue length, vector"
vector 64  mIPv6NetworkExample.R_1.eth[0].queue.pauseQueue  queueLength:vector  ETV
attr interpolationmode  sample-hold
attr title  "queue length, vector"
vector 68  mIPv6NetworkExample.R_1.eth[0].queue.dataQueue  queueLength:vector  ETV
attr interpolationmode  sample-hold
attr title  "queue length, vector"
vector 84  mIPv6NetworkExample.R_1.eth[1].queue.pauseQueue  queueLength:vector  ETV
attr interpolationmode  sample-hold
attr title  "queue length, vector"
vector 88  mIPv6NetworkExample.R_1.eth[1].queue.dataQueue  queueLength:vector  ETV
attr interpolationmode  sample-hold
attr title  "queue length, vector"
vector 108  mIPv6NetworkExample.R_2.eth[0].queue.pauseQueue  queueLength:vector  ETV
attr interpolationmode  sample-hold
attr title  "queue length, vector"
vector 112  mIPv6NetworkExample.R_2.eth[0].queue.dataQueue  queueLength:vector  ETV
attr interpolationmode  sample-hold
attr title  "queue length, vector"
vector 128  mIPv6NetworkExample.R_2.eth[1].queue.pauseQueue  queueLength:vector  ETV
attr interpolationmode  sample-hold
attr title  "queue length, vector"
vector 132  mIPv6NetworkExample.R_2.eth[1].queue.dataQueue  queueLength:vector  ETV
attr interpolationmode  sample-hold
attr title  "queue length, vector"
vector 148  mIPv6NetworkExample.R_2.eth[2].queue.pauseQueue  queueLength:vector  ETV
attr interpolationmode  sample-hold
attr title  "queue length, vector"
vector 152  mIPv6NetworkExample.R_2.eth[2].queue.dataQueue  queueLength:vector  ETV
attr interpolationmode  sample-hold
attr title  "queue length, vector"
vector 163  mIPv6NetworkExample.NEMO.R.wlan[0].mgmt  dataQueueLen:vector  ETV
attr interpolationmode  sample-hold
attr title  "data queue length, vector"
vector 188  mIPv6NetworkExample.NEMO.R.eth[0].queue.pauseQueue  queueLength:vector  ETV
attr interpolationmode  sample-hold
attr title  "queue length, vector"
vector 192  mIPv6NetworkExample.NEMO.R.eth[0].queue.dataQueue  queueLength:vector  ETV
attr interpolationmode  sample-hold
attr title  "queue length, vector"
vector 215  mIPv6NetworkExample.NEMO.LFN6.eth[0].queue.pauseQueue  queueLength:vector  ETV
attr interpolationmode  sample-hold
attr title  "queue length, vector"
vector 219  mIPv6NetworkExample.NEMO.LFN6.eth[0].queue.dataQueue  queueLength:vector  ETV
attr interpolationmode  sample-hold
attr title  "queue length, vector"
vector 242  mIPv6NetworkExample.CN.eth[0].queue.pauseQueue  queueLength:vector  ETV
attr interpolationmode  sample-hold
attr title  "queue length, vector"
vector 246  mIPv6NetworkExample.CN.eth[0].queue.dataQueue  queueLength:vector  ETV
attr interpolationmode  sample-hold
attr title  "queue length, vector"
vector 247  mIPv6NetworkExample.AP_Home.wlan[0].mgmt  dataQueueLen:vector  ETV
attr interpolationmode  sample-hold
attr title  "data queue length, vector"
vector 269  mIPv6NetworkExample.AP_Home.eth[0].queue.pauseQueue  queueLength:vector  ETV
attr interpolationmode  sample-hold
attr title  "queue length, vector"
vector 273  mIPv6NetworkExample.AP_Home.eth[0].queue.dataQueue  queueLength:vector  ETV
attr interpolationmode  sample-hold
attr title  "queue length, vector"
vector 274  mIPv6NetworkExample.AP_1.wlan[0].mgmt  dataQueueLen:vector  ETV
attr interpolationmode  sample-hold
attr title  "data queue length, vector"
vector 296  mIPv6NetworkExample.AP_1.eth[0].queue.pauseQueue  queueLength:vector  ETV
attr interpolationmode  sample-hold
attr title  "queue length, vector"
vector 300  mIPv6NetworkExample.AP_1.eth[0].queue.dataQueue  queueLength:vector  ETV
attr interpolationmode  sample-hold
attr title  "queue length, vector"
vector 302  mIPv6NetworkExample.NEMO.R.wlan[0].mac  RadioState  ETV
attr enum  "IDLE=0, OFF=4, RECV=1, SLEEP=3, TRANSMIT=2"
attr enumname  RadioState
vector 301  mIPv6NetworkExample.NEMO.R.wlan[0].mac  State  ETV
attr enum  "BACKOFF=3, DEFER=1, IDLE=0, RECEIVE=8, WAITACK=4, WAITAIFS=2, WAITCTS=6, WAITMULTICAST=5, WAITSIFS=7"
attr enumname  Ieee80211Mac
vector 308  mIPv6NetworkExample.AP_Home.wlan[0].mac  RadioState  ETV
attr enum  "IDLE=0, OFF=4, RECV=1, SLEEP=3, TRANSMIT=2"
attr enumname  RadioState
vector 307  mIPv6NetworkExample.AP_Home.wlan[0].mac  State  ETV
attr enum  "BACKOFF=3, DEFER=1, IDLE=0, RECEIVE=8, WAITACK=4, WAITAIFS=2, WAITCTS=6, WAITMULTICAST=5, WAITSIFS=7"
attr enumname  Ieee80211Mac
vector 314  mIPv6NetworkExample.AP_1.wlan[0].mac  RadioState  ETV
attr enum  "IDLE=0, OFF=4, RECV=1, SLEEP=3, TRANSMIT=2"
attr enumname  RadioState
vector 313  mIPv6NetworkExample.AP_1.wlan[0].mac  State  ETV
attr enum  "BACKOFF=3, DEFER=1, IDLE=0, RECEIVE=8, WAITACK=4, WAITAIFS=2, WAITCTS=6, WAITMULTICAST=5, WAITSIFS=7"
attr enumname  Ieee80211Mac
vector 169  mIPv6NetworkExample.NEMO.R.wlan[0].radio  bitrate:vector  ETV
attr interpolationmode  sample-hold
attr title  "tx bitrate, vector"
attr unit  bps
vector 171  mIPv6NetworkExample.NEMO.R.wlan[0].radio  radioState:vector  ETV
attr interpolationmode  sample-hold
attr title  "radio state (enum), vector"
vector 170  mIPv6NetworkExample.NEMO.R.wlan[0].radio  channelNo:vector  ETV
attr interpolationmode  sample-hold
attr title  "channel no, vector"
vector 253  mIPv6NetworkExample.AP_Home.wlan[0].radio  bitrate:vector  ETV
attr interpolationmode  sample-hold
attr title  "tx bitrate, vector"
attr unit  bps
vector 255  mIPv6NetworkExample.AP_Home.wlan[0].radio  radioState:vector  ETV
attr interpolationmode  sample-hold
attr title  "radio state (enum), vector"
vector 254  mIPv6NetworkExample.AP_Home.wlan[0].radio  channelNo:vector  ETV
attr interpolationmode  sample-hold
attr title  "channel no, vector"
vector 280  mIPv6NetworkExample.AP_1.wlan[0].radio  bitrate:vector  ETV
attr interpolationmode  sample-hold
attr title  "tx bitrate, vector"
attr unit  bps
vector 282  mIPv6NetworkExample.AP_1.wlan[0].radio  radioState:vector  ETV
attr interpolationmode  sample-hold
attr title  "radio state (enum), vector"
vector 281  mIPv6NetworkExample.AP_1.wlan[0].radio  channelNo:vector  ETV
attr interpolationmode  sample-hold
attr title  "channel no, vector"
vector 156  mIPv6NetworkExample.NEMO.R.networkLayer.neighbourDiscovery  startDAD:vector  ETV
attr title  "DAD started, vector"
vector 182  mIPv6NetworkExample.NEMO.R.eth[0].encap  encapPk:vector(packetBytes)  ETV
attr interpolationmode  none
attr source  encapPk
attr title  "packets encapsulated, vector(packetBytes)"
vector 189  mIPv6NetworkExample.NEMO.R.eth[0].queue.dataQueue  rcvdPk:vector(packetBytes)  ETV
attr interpolationmode  none
attr title  "received packets, vector(packetBytes)"
vector 191  mIPv6NetworkExample.NEMO.R.eth[0].queue.dataQueue  queueingTime:vector  ETV
attr interpolationmode  none
attr title  "queueing time, vector"
vector 178  mIPv6NetworkExample.NEMO.R.eth[0].mac  rxPkFromHL:vector(packetBytes)  ETV
attr interpolationmode  none
attr source  rxPkFromHL
attr title  "packet bytes from higher layer, vector(packetBytes)"
vector 173  mIPv6NetworkExample.NEMO.R.eth[0].mac  txPk:vector(packetBytes)  ETV
attr interpolationmode  none
attr source  txPk
attr title  "packets transmitted, vector(packetBytes)"
vector 201  mIPv6NetworkExample.NEMO.LFN6.eth[0].mac  rxPkOk:vector(packetBytes)  ETV
attr interpolationmode  none
attr source  rxPkOk
attr title  "packets received OK, vector(packetBytes)"
vector 202  mIPv6NetworkExample.NEMO.LFN6.eth[0].mac  passedUpPk:vector(packetBytes)  ETV
attr interpolationmode  none
attr source  packetSentToUpper
attr title  "packets passed to higher layer, vector(packetBytes)"
vector 210  mIPv6NetworkExample.NEMO.LFN6.eth[0].encap  decapPk:vector(packetBytes)  ETV
attr interpolationmode  none
attr source  decapPk
attr title  "packets decapsulated, vector(packetBytes)"
vector 34  mIPv6NetworkExample.Home_Agent.eth[1].encap  encapPk:vector(packetBytes)  ETV
attr interpolationmode  none
attr source  encapPk
attr title  "packets encapsulated, vector(packetBytes)"
vector 41  mIPv6NetworkExample.Home_Agent.eth[1].queue.dataQueue  rcvdPk:vector(packetBytes)  ETV
attr interpolationmode  none
attr title  "received packets, vector(packetBytes)"
vector 43  mIPv6NetworkExample.Home_Agent.eth[1].queue.dataQueue  queueingTime:vector  ETV
attr interpolationmode  none
attr title  "queueing time, vector"
vector 30  mIPv6NetworkExample.Home_Agent.eth[1].mac  rxPkFromHL:vector(packetBytes)  ETV
attr interpolationmode  none
attr source  rxPkFromHL
attr title  "packet bytes from higher layer, vector(packetBytes)"
vector 25  mIPv6NetworkExample.Home_Agent.eth[1].mac  txPk:vector(packetBytes)  ETV
attr interpolationmode  none
attr source  txPk
attr title  "packets transmitted, vector(packetBytes)"
vector 258  mIPv6NetworkExample.AP_Home.eth[0].mac  rxPkOk:vector(packetBytes)  ETV
attr interpolationmode  none
attr source  rxPkOk
attr title  "packets received OK, vector(packetBytes)"
vector 259  mIPv6NetworkExample.AP_Home.eth[0].mac  passedUpPk:vector(packetBytes)  ETV
attr interpolationmode  none
attr source  packetSentToUpper
attr title  "packets passed to higher layer, vector(packetBytes)"
vector 251  mIPv6NetworkExample.AP_Home.wlan[0].mac  rcvdPkFromHL:vector(packetBytes)  ETV
attr interpolationmode  none
attr source  packetReceivedFromUpper
attr title  "packets received from higher layer, vector(packetBytes)"
vector 250  mIPv6NetworkExample.AP_Home.wlan[0].mac  sentDownPk:vector(packetBytes)  ETV
attr interpolationmode  none
attr source  packetSentToLower
attr title  "packets sent to lower layer, vector(packetBytes)"
vector 78  mIPv6NetworkExample.R_1.eth[1].encap  encapPk:vector(packetBytes)  ETV
attr interpolationmode  none
attr source  encapPk
attr title  "packets encapsulated, vector(packetBytes)"
vector 85  mIPv6NetworkExample.R_1.eth[1].queue.dataQueue  rcvdPk:vector(packetBytes)  ETV
attr interpolationmode  none
attr title  "received packets, vector(packetBytes)"
vector 87  mIPv6NetworkExample.R_1.eth[1].queue.dataQueue  queueingTime:vector  ETV
attr interpolationmode  none
attr title  "queueing time, vector"
vector 74  mIPv6NetworkExample.R_1.eth[1].mac  rxPkFromHL:vector(packetBytes)  ETV
attr interpolationmode  none
attr source  rxPkFromHL
attr title  "packet bytes from higher layer, vector(packetBytes)"
vector 69  mIPv6NetworkExample.R_1.eth[1].mac  txPk:vector(packetBytes)  ETV
attr interpolationmode  none
attr source  txPk
attr title  "packets transmitted, vector(packetBytes)"
vector 285  mIPv6NetworkExample.AP_1.eth[0].mac  rxPkOk:vector(packetBytes)  ETV
attr interpolationmode  none
attr source  rxPkOk
attr title  "packets received OK, vector(packetBytes)"
vector 286  mIPv6NetworkExample.AP_1.eth[0].mac  passedUpPk:vector(packetBytes)  ETV
attr interpolationmode  none
attr source  packetSentToUpper
attr title  "packets passed to higher layer, vector(packetBytes)"
vector 278  mIPv6NetworkExample.AP_1.wlan[0].mac  rcvdPkFromHL:vector(packetBytes)  ETV
attr interpolationmode  none
attr source  packetReceivedFromUpper
attr title  "packets received from higher layer, vector(packetBytes)"
vector 277  mIPv6NetworkExample.AP_1.wlan[0].mac  sentDownPk:vector(packetBytes)  ETV
attr interpolationmode  none
attr source  packetSentToLower
attr title  "packets sent to lower layer, vector(packetBytes)"
vector 45  mIPv6NetworkExample.R_1.networkLayer.neighbourDiscovery  startDAD:vector  ETV
attr title  "DAD started, vector"
vector 58  mIPv6NetworkExample.R_1.eth[0].encap  encapPk:vector(packetBytes)  ETV
attr interpolationmode  none
attr source  encapPk
attr title  "packets encapsulated, vector(packetBytes)"
vector 65  mIPv6NetworkExample.R_1.eth[0].queue.dataQueue  rcvdPk:vector(packetBytes)  ETV
attr interpolationmode  none
attr title  "received packets, vector(packetBytes)"
vector 67  mIPv6NetworkExample.R_1.eth[0].queue.dataQueue  queueingTime:vector  ETV
attr interpolationmode  none
attr title  "queueing time, vector"
vector 54  mIPv6NetworkExample.R_1.eth[0].mac  rxPkFromHL:vector(packetBytes)  ETV
attr interpolationmode  none
attr source  rxPkFromHL
attr title  "packet bytes from higher layer, vector(packetBytes)"
vector 49  mIPv6NetworkExample.R_1.eth[0].mac  txPk:vector(packetBytes)  ETV
attr interpolationmode  none
attr source  txPk
attr title  "packets transmitted, vector(packetBytes)"
vector 94  mIPv6NetworkExample.R_2.eth[0].mac  rxPkOk:vector(packetBytes)  ETV
attr interpolationmode  none
attr source  rxPkOk
attr title  "packets received OK, vector(packetBytes)"
vector 95  mIPv6NetworkExample.R_2.eth[0].mac  passedUpPk:vector(packetBytes)  ETV
attr interpolationmode  none
attr source  packetSentToUpper
attr title  "packets passed to higher layer, vector(packetBytes)"
vector 103  mIPv6NetworkExample.R_2.eth[0].encap  decapPk:vector(packetBytes)  ETV
attr interpolationmode  none
attr source  decapPk
attr title  "packets decapsulated, vector(packetBytes)"
vector 310  mIPv6NetworkExample.AP_Home.wlan[0].mac  "throughput AC0"  ETV
vector 1  mIPv6NetworkExample.Home_Agent.networkLayer.neighbourDiscovery  startDAD:vector  ETV
attr title  "DAD started, vector"
vector 14  mIPv6NetworkExample.Home_Agent.eth[0].encap  encapPk:vector(packetBytes)  ETV
attr interpolationmode  none
attr source  encapPk
attr title  "packets encapsulated, vector(packetBytes)"
vector 21  mIPv6NetworkExample.Home_Agent.eth[0].queue.dataQueue  rcvdPk:vector(packetBytes)  ETV
attr interpolationmode  none
attr title  "received packets, vector(packetBytes)"
vector 23  mIPv6NetworkExample.Home_Agent.eth[0].queue.dataQueue  queueingTime:vector  ETV
attr interpolationmode  none
attr title  "queueing time, vector"
vector 10  mIPv6NetworkExample.Home_Agent.eth[0].mac  rxPkFromHL:vector(packetBytes)  ETV
attr interpolationmode  none
attr source  rxPkFromHL
attr title  "packet bytes from higher layer, vector(packetBytes)"
vector 5  mIPv6NetworkExample.Home_Agent.eth[0].mac  txPk:vector(packetBytes)  ETV
attr interpolationmode  none
attr source  txPk
attr title  "packets transmitted, vector(packetBytes)"
vector 114  mIPv6NetworkExample.R_2.eth[1].mac  rxPkOk:vector(packetBytes)  ETV
attr interpolationmode  none
attr source  rxPkOk
attr title  "packets received OK, vector(packetBytes)"
vector 115  mIPv6NetworkExample.R_2.eth[1].mac  passedUpPk:vector(packetBytes)  ETV
attr interpolationmode  none
attr source  packetSentToUpper
attr title  "packets passed to higher layer, vector(packetBytes)"
vector 123  mIPv6NetworkExample.R_2.eth[1].encap  decapPk:vector(packetBytes)  ETV
attr interpolationmode  none
attr source  decapPk
attr title  "packets decapsulated, vector(packetBytes)"
vector 89  mIPv6NetworkExample.R_2.networkLayer.neighbourDiscovery  startDAD:vector  ETV
attr title  "DAD started, vector"
vector 102  mIPv6NetworkExample.R_2.eth[0].encap  encapPk:vector(packetBytes)  ETV
attr interpolationmode  none
attr source  encapPk
attr title  "packets encapsulated, vector(packetBytes)"
vector 109  mIPv6NetworkExample.R_2.eth[0].queue.dataQueue  rcvdPk:vector(packetBytes)  ETV
attr interpolationmode  none
attr title  "received packets, vector(packetBytes)"
vector 111  mIPv6NetworkExample.R_2.eth[0].queue.dataQueue  queueingTime:vector  ETV
attr interpolationmode  none
attr title  "queueing time, vector"
vector 98  mIPv6NetworkExample.R_2.eth[0].mac  rxPkFromHL:vector(packetBytes)  ETV
attr interpolationmode  none
attr source  rxPkFromHL
attr title  "packet bytes from higher layer, vector(packetBytes)"
vector 93  mIPv6NetworkExample.R_2.eth[0].mac  txPk:vector(packetBytes)  ETV
attr interpolationmode  none
attr source  txPk
attr title  "packets transmitted, vector(packetBytes)"
vector 50  mIPv6NetworkExample.R_1.eth[0].mac  rxPkOk:vector(packetBytes)  ETV
attr interpolationmode  none
attr source  rxPkOk
attr title  "packets received OK, vector(packetBytes)"
vector 51  mIPv6NetworkExample.R_1.eth[0].mac  passedUpPk:vector(packetBytes)  ETV
attr interpolationmode  none
attr source  packetSentToUpper
attr title  "packets passed to higher layer, vector(packetBytes)"
vector 59  mIPv6NetworkExample.R_1.eth[0].encap  decapPk:vector(packetBytes)  ETV
attr interpolationmode  none
attr source  decapPk
attr title  "packets decapsulated, vector(packetBytes)"
vector 122  mIPv6NetworkExample.R_2.eth[1].encap  encapPk:vector(packetBytes)  ETV
attr interpolationmode  none
attr source  encapPk
attr title  "packets encapsulated, vector(packetBytes)"
vector 129  mIPv6NetworkExample.R_2.eth[1].queue.dataQueue  rcvdPk:vector(packetBytes)  ETV
attr interpolationmode  none
attr title  "received packets, vector(packetBytes)"
vector 131  mIPv6NetworkExample.R_2.eth[1].queue.dataQueue  queueingTime:vector  ETV
attr interpolationmode  none
attr title  "queueing time, vector"
vector 118  mIPv6NetworkExample.R_2.eth[1].mac  rxPkFromHL:vector(packetBytes)  ETV
attr interpolationmode  none
attr source  rxPkFromHL
attr title  "packet bytes from higher layer, vector(packetBytes)"
vector 113  mIPv6NetworkExample.R_2.eth[1].mac  txPk:vector(packetBytes)  ETV
attr interpolationmode  none
attr source  txPk
attr title  "packets transmitted, vector(packetBytes)"
vector 6  mIPv6NetworkExample.Home_Agent.eth[0].mac  rxPkOk:vector(packetBytes)  ETV
attr interpolationmode  none
attr source  rxPkOk
attr title  "packets received OK, vector(packetBytes)"
vector 7  mIPv6NetworkExample.Home_Agent.eth[0].mac  passedUpPk:vector(packetBytes)  ETV
attr interpolationmode  none
attr source  packetSentToUpper
attr title  "packets passed to higher layer, vector(packetBytes)"
vector 15  mIPv6NetworkExample.Home_Agent.eth[0].encap  decapPk:vector(packetBytes)  ETV
attr interpolationmode  none
attr source  decapPk
attr title  "packets decapsulated, vector(packetBytes)"
vector 142  mIPv6NetworkExample.R_2.eth[2].encap  encapPk:vector(packetBytes)  ETV
attr interpolationmode  none
attr source  encapPk
attr title  "packets encapsulated, vector(packetBytes)"
vector 149  mIPv6NetworkExample.R_2.eth[2].queue.dataQueue  rcvdPk:vector(packetBytes)  ETV
attr interpolationmode  none
attr title  "received packets, vector(packetBytes)"
vector 151  mIPv6NetworkExample.R_2.eth[2].queue.dataQueue  queueingTime:vector  ETV
attr interpolationmode  none
attr title  "queueing time, vector"
vector 138  mIPv6NetworkExample.R_2.eth[2].mac  rxPkFromHL:vector(packetBytes)  ETV
attr interpolationmode  none
attr source  rxPkFromHL
attr title  "packet bytes from higher layer, vector(packetBytes)"
vector 0  mIPv6NetworkExample.hub  pk:vector(packetBytes)  ETV
attr interpolationmode  none
attr source  pk
attr title  "packets, vector(packetBytes)"
vector 133  mIPv6NetworkExample.R_2.eth[2].mac  txPk:vector(packetBytes)  ETV
attr interpolationmode  none
attr source  txPk
attr title  "packets transmitted, vector(packetBytes)"
vector 228  mIPv6NetworkExample.CN.eth[0].mac  rxPkOk:vector(packetBytes)  ETV
attr interpolationmode  none
attr source  rxPkOk
attr title  "packets received OK, vector(packetBytes)"
vector 229  mIPv6NetworkExample.CN.eth[0].mac  passedUpPk:vector(packetBytes)  ETV
attr interpolationmode  none
attr source  packetSentToUpper
attr title  "packets passed to higher layer, vector(packetBytes)"
vector 237  mIPv6NetworkExample.CN.eth[0].encap  decapPk:vector(packetBytes)  ETV
attr interpolationmode  none
attr source  decapPk
attr title  "packets decapsulated, vector(packetBytes)"
vector 316  mIPv6NetworkExample.AP_1.wlan[0].mac  "throughput AC0"  ETV
vector 160  mIPv6NetworkExample.NEMO.R.wlan[0].agent  sentRequest:vector  ETV
attr title  "sent requests, vector"
vector 304  mIPv6NetworkExample.NEMO.R.wlan[0].mac  "throughput AC0"  ETV
vector 167  mIPv6NetworkExample.NEMO.R.wlan[0].mac  rcvdPkFromHL:vector(packetBytes)  ETV
attr interpolationmode  none
attr source  packetReceivedFromUpper
attr title  "packets received from higher layer, vector(packetBytes)"
vector 166  mIPv6NetworkExample.NEMO.R.wlan[0].mac  sentDownPk:vector(packetBytes)  ETV
attr interpolationmode  none
attr source  packetSentToLower
attr title  "packets sent to lower layer, vector(packetBytes)"
vector 223  mIPv6NetworkExample.CN.networkLayer.neighbourDiscovery  startDAD:vector  ETV
attr title  "DAD started, vector"
vector 236  mIPv6NetworkExample.CN.eth[0].encap  encapPk:vector(packetBytes)  ETV
attr interpolationmode  none
attr source  encapPk
attr title  "packets encapsulated, vector(packetBytes)"
vector 243  mIPv6NetworkExample.CN.eth[0].queue.dataQueue  rcvdPk:vector(packetBytes)  ETV
attr interpolationmode  none
attr title  "received packets, vector(packetBytes)"
vector 245  mIPv6NetworkExample.CN.eth[0].queue.dataQueue  queueingTime:vector  ETV
attr interpolationmode  none
attr title  "queueing time, vector"
vector 232  mIPv6NetworkExample.CN.eth[0].mac  rxPkFromHL:vector(packetBytes)  ETV
attr interpolationmode  none
attr source  rxPkFromHL
attr title  "packet bytes from higher layer, vector(packetBytes)"
vector 227  mIPv6NetworkExample.CN.eth[0].mac  txPk:vector(packetBytes)  ETV
attr interpolationmode  none
attr source  txPk
attr title  "packets transmitted, vector(packetBytes)"
vector 134  mIPv6NetworkExample.R_2.eth[2].mac  rxPkOk:vector(packetBytes)  ETV
attr interpolationmode  none
attr source  rxPkOk
attr title  "packets received OK, vector(packetBytes)"
vector 135  mIPv6NetworkExample.R_2.eth[2].mac  passedUpPk:vector(packetBytes)  ETV
attr interpolationmode  none
attr source  packetSentToUpper
attr title  "packets passed to higher layer, vector(packetBytes)"
vector 143  mIPv6NetworkExample.R_2.eth[2].encap  decapPk:vector(packetBytes)  ETV
attr interpolationmode  none
attr source  decapPk
attr title  "packets decapsulated, vector(packetBytes)"
vector 196  mIPv6NetworkExample.NEMO.LFN6.networkLayer.neighbourDiscovery  startDAD:vector  ETV
attr title  "DAD started, vector"
vector 209  mIPv6NetworkExample.NEMO.LFN6.eth[0].encap  encapPk:vector(packetBytes)  ETV
attr interpolationmode  none
attr source  encapPk
attr title  "packets encapsulated, vector(packetBytes)"
vector 216  mIPv6NetworkExample.NEMO.LFN6.eth[0].queue.dataQueue  rcvdPk:vector(packetBytes)  ETV
attr interpolationmode  none
attr title  "received packets, vector(packetBytes)"
vector 218  mIPv6NetworkExample.NEMO.LFN6.eth[0].queue.dataQueue  queueingTime:vector  ETV
attr interpolationmode  none
attr title  "queueing time, vector"
vector 205  mIPv6NetworkExample.NEMO.LFN6.eth[0].mac  rxPkFromHL:vector(packetBytes)  ETV
attr interpolationmode  none
attr source  rxPkFromHL
attr title  "packet bytes from higher layer, vector(packetBytes)"
vector 200  mIPv6NetworkExample.NEMO.LFN6.eth[0].mac  txPk:vector(packetBytes)  ETV
attr interpolationmode  none
attr source  txPk
attr title  "packets transmitted, vector(packetBytes)"
vector 174  mIPv6NetworkExample.NEMO.R.eth[0].mac  rxPkOk:vector(packetBytes)  ETV
attr interpolationmode  none
attr source  rxPkOk
attr title  "packets received OK, vector(packetBytes)"
vector 175  mIPv6NetworkExample.NEMO.R.eth[0].mac  passedUpPk:vector(packetBytes)  ETV
attr interpolationmode  none
attr source  packetSentToUpper
attr title  "packets passed to higher layer, vector(packetBytes)"
vector 183  mIPv6NetworkExample.NEMO.R.eth[0].encap  decapPk:vector(packetBytes)  ETV
attr interpolationmode  none
attr source  decapPk
attr title  "packets decapsulated, vector(packetBytes)"
vector 162  mIPv6NetworkExample.NEMO.R.wlan[0].agent  dropConfirm:vector  ETV
attr title  "dropped confirms, vector"
0	254	0.147820876332	72
0	907	0.735322551096	72
0	2742	2.443485148708	72
1	179	0.137049966794	1
1	179	0.137049966794	1
5	188	0.137065726794	64
6	244	0.147816636332	64
7	244	0.147816636332	64
10	187	0.137059966794	64
14	183	0.137059966794	40
15	245	0.147816636332	40
20	0	0	0
21	185	0.137059966794	64
23	185	0.137059966794	0
24	0	0	0
24	185	0.137059966794	1
24	185	0.137059966794	0
25	30	0.035830565896	64
25	123	0.081924991589	64
25	167	0.130109302187	64
25	199	0.137075726794	64
25	306	0.172363843451	64
25	350	0.234721011434	64
25	410	0.268409691889	64
25	442	0.299334394632	64
25	494	0.351845198486	64
25	542	0.38997937964	64
25	593	0.443429495708	64
25	648	0.491614378995	64
25	705	0.542175781146	64
25	765	0.586669399492	64
25	813	0.644236616152	64
25	867	0.693808266375	64
25	934	0.744672439846	64
25	997	0.813536544221	64
25	1071	0.872494109685	64
25	1115	0.90539659518	64
25	1197	0.975008642721	64
25	1254	1.043092692523	64
25	1310	1.094137132503	64
25	1362	1.146988522298	64
25	1418	1.190985531173	64
25	1470	1.252414744542	64
25	1531	1.304230049214	64
25	1584	1.365627517186	64
25	1641	1.41737129038	64
25	1701	1.484488744379	64
25	1755	1.534618955987	64
25	1839	1.589004784577	64
25	1883	1.629293039698	64
25	1947	1.685337950313	64
25	2019	1.755155677306	64
25	2059	1.790342012666	64
25	2103	1.841972446081	64
25	2183	1.911624274917	64
25	2215	1.944211202647	64
25	2271	1.985846100469	64
25	2324	2.028153449595	64
25	2358	2.06194870295	64
25	2407	2.10450146743	64
25	2467	2.168155618299	64
25	2519	2.237020590108	64
25	2587	2.276643402695	64
25	2611	2.325943284237	64
25	2667	2.365480736146	64
25	2715	2.404118714897	64
30	29	0.035824805896	64
30	122	0.081919231589	64
30	166	0.130103542187	64
30	198	0.137069966794	64
30	305	0.172358083451	64
30	349	0.234715251434	64
30	409	0.268403931889	64
30	441	0.299328634632	64
30	493	0.351839438486	64
30	541	0.38997361964	64
30	592	0.443423735708	64
30	647	0.491608618995	64
30	704	0.542170021146	64
30	764	0.586663639492	64
30	812	0.644230856152	64
30	866	0.693802506375	64
30	933	0.744666679846	64
30	996	0.813530784221	64
30	1070	0.872488349685	64
30	1114	0.90539083518	64
30	1196	0.975002882721	64
30	1253	1.043086932523	64
30	1309	1.094131372503	64
30	1361	1.146982762298	64
30	1417	1.190979771173	64
30	1469	1.252408984542	64
30	1530	1.304224289214	64
30	1583	1.365621757186	64
30	1640	1.41736553038	64
30	1700	1.484482984379	64
30	1754	1.534613195987	64
30	1838	1.588999024577	64
30	1882	1.629287279698	64
30	1946	1.685332190313	64
30	2018	1.755149917306	64
30	2058	1.790336252666	64
30	2102	1.841966686081	64
30	2182	1.911618514917	64
30	2214	1.944205442647	64
30	2270	1.985840340469	64
30	2323	2.028147689595	64
30	2357	2.06194294295	64
30	2406	2.10449570743	64
30	2466	2.168149858299	64
30	2518	2.237014830108	64
30	2586	2.276637642695	64
30	2610	2.325937524237	64
30	2666	2.365474976146	64
30	2714	2.404112954897	64
34	25	0.035824805896	40
34	118	0.081919231589	40
34	162	0.130103542187	40
34	194	0.137069966794	40
34	301	0.172358083451	40
34	345	0.234715251434	40
34	405	0.268403931889	40
34	437	0.299328634632	40
34	489	0.351839438486	40
34	537	0.38997361964	40
34	588	0.443423735708	40
34	643	0.491608618995	40
34	700	0.542170021146	40
34	760	0.586663639492	40
34	808	0.644230856152	40
34	862	0.693802506375	40
34	929	0.744666679846	40
34	992	0.813530784221	40
34	1066	0.872488349685	40
34	1110	0.90539083518	40
34	1192	0.975002882721	40
34	1249	1.043086932523	40
34	1305	1.094131372503	40
34	1357	1.146982762298	40
34	1413	1.190979771173	40
34	1465	1.252408984542	40
34	1526	1.304224289214	40
34	1579	1.365621757186	40
34	1636	1.41736553038	40
34	1696	1.484482984379	40
34	1750	1.534613195987	40
34	1834	1.588999024577	40
34	1878	1.629287279698	40
34	1942	1.685332190313	40
34	2014	1.755149917306	40
34	2054	1.790336252666	40
34	2098	1.841966686081	40
34	2178	1.911618514917	40
34	2210	1.944205442647	40
34	2266	1.985840340469	40
34	2319	2.028147689595	40
34	2353	2.06194294295	40
34	2402	2.10449570743	40
34	2462	2.168149858299	40
34	2514	2.237014830108	40
34	2582	2.276637642695	40
34	2606	2.325937524237	40
34	2662	2.365474976146	40
34	2710	2.404112954897	40
40	0	0	0
41	27	0.035824805896	64
41	120	0.081919231589	64
41	164	0.130103542187	64
41	196	0.137069966794	64
41	303	0.172358083451	64
41	347	0.234715251434	64
41	407	0.268403931889	64
41	439	0.299328634632	64
41	491	0.351839438486	64
41	539	0.38997361964	64
41	590	0.443423735708	64
41	645	0.491608618995	64
41	702	0.542170021146	64
41	762	0.586663639492	64
41	810	0.644230856152	64
41	864	0.693802506375	64
41	931	0.744666679846	64
41	994	0.813530784221	64
41	1068	0.872488349685	64
41	1112	0.90539083518	64
41	1194	0.975002882721	64
41	1251	1.043086932523	64
41	1307	1.094131372503	64
41	1359	1.146982762298	64
41	1415	1.190979771173	64
41	1467	1.252408984542	64
41	1528	1.304224289214	64
41	1581	1.365621757186	64
41	1638	1.41736553038	64
41	1698	1.484482984379	64
41	1752	1.534613195987	64
41	1836	1.588999024577	64
41	1880	1.629287279698	64
41	1944	1.685332190313	64
41	2016	1.755149917306	64
41	2056	1.790336252666	64
41	2100	1.841966686081	64
41	2180	1.911618514917	64
41	2212	1.944205442647	64
41	2268	1.985840340469	64
41	2321	2.028147689595	64
41	2355	2.06194294295	64
41	2404	2.10449570743	64
41	2464	2.168149858299	64
41	2516	2.237014830108	64
41	2584	2.276637642695	64
41	2608	2.325937524237	64
41	2664	2.365474976146	64
41	2712	2.404112954897	64
43	27	0.035824805896	0
43	120	0.081919231589	0
43	164	0.130103542187	0
43	196	0.137069966794	0
43	303	0.172358083451	0
43	347	0.234715251434	0
43	407	0.268403931889	0
43	439	0.299328634632	0
43	491	0.351839438486	0
43	539	0.38997361964	0
43	590	0.443423735708	0
43	645	0.491608618995	0
43	702	0.542170021146	0
43	762	0.586663639492	0
43	810	0.644230856152	0