file 142953 1430129886                                          
version 2
run One-0-20150427-17:15:14-18173
attr configname One
attr datetime 20150427-17:15:14
attr experiment One
attr inifile omnetpp.ini
attr iterationvars ""
attr iterationvars2 $repetition=0
attr measurement ""
attr network mIPv6NetworkExample
attr processid 18173
attr repetition 0
attr replication #0
attr resultdir results
attr runnumber 0
attr seedset 1

vector 20  mIPv6NetworkExample.Home_Agent.eth[0].queue.pauseQueue  queueLength:vector  ETV
attr interpolationmode  sample-hold
attr title  "queue length, vector"
vector 24  mIPv6NetworkExample.Home_Agent.eth[0].queue.dataQueue  queueLength:vector  ETV
attr interpolationmode  sample-hold
attr title  "queue length, vector"
vector 40  mIPv6NetworkExample.Home_Agent.eth[1].queue.pauseQueue  queueLength:vector  ETV
attr interpolationmode  sample-hold
attr title  "queue length, vector"
vector 44  mIPv6NetworkExample.Home_Agent.eth[1].queue.dataQueue  queueLength:vector  ETV
attr interpolationmode  sample-hold
attr title  "queue length, vector"
vector 64  mIPv6NetworkExample.R_1.eth[0].queue.pauseQueue  queueLength:vector  ETV
attr interpolationmode  sample-hold
attr title  "queue length, vector"
vector 68  mIPv6NetworkExample.R_1.eth[0].queue.dataQueue  queueLength:vector  ETV
attr interpolationmode  sample-hold
attr title  "queue length, vector"
vector 84  mIPv6NetworkExample.R_1.eth[1].queue.pauseQueue  queueLength:vector  ETV
attr interpolationmode  sample-hold
attr title  "queue length, vector"
vector 88  mIPv6NetworkExample.R_1.eth[1].queue.dataQueue  queueLength:vector  ETV
attr interpolationmode  sample-hold
attr title  "queue length, vector"
vector 108  mIPv6NetworkExample.R_2.eth[0].queue.pauseQueue  queueLength:vector  ETV
attr interpolationmode  sample-hold
attr title  "queue length, vector"
vector 112  mIPv6NetworkExample.R_2.eth[0].queue.dataQueue  queueLength:vector  ETV
attr interpolationmode  sample-hold
attr title  "queue length, vector"
vector 128  mIPv6NetworkExample.R_2.eth[1].queue.pauseQueue  queueLength:vector  ETV
attr interpolationmode  sample-hold
attr title  "queue length, vector"
vector 132  mIPv6NetworkExample.R_2.eth[1].queue.dataQueue  queueLength:vector  ETV
attr interpolationmode  sample-hold
attr title  "queue length, vector"
vector 148  mIPv6NetworkExample.R_2.eth[2].queue.pauseQueue  queueLength:vector  ETV
attr interpolationmode  sample-hold
attr title  "queue length, vector"
vector 152  mIPv6NetworkExample.R_2.eth[2].queue.dataQueue  queueLength:vector  ETV
attr interpolationmode  sample-hold
attr title  "queue length, vector"
vector 164  mIPv6NetworkExample.NEMO.R.wlan[0].mgmt  dataQueueLen:vector  ETV
attr interpolationmode  sample-hold
attr title  "data queue length, vector"
vector 189  mIPv6NetworkExample.NEMO.R.eth[0].queue.pauseQueue  queueLength:vector  ETV
attr interpolationmode  sample-hold
attr title  "queue length, vector"
vector 193  mIPv6NetworkExample.NEMO.R.eth[0].queue.dataQueue  queueLength:vector  ETV
attr interpolationmode  sample-hold
attr title  "queue length, vector"
vector 209  mIPv6NetworkExample.NEMO.R.eth[1].queue.pauseQueue  queueLength:vector  ETV
attr interpolationmode  sample-hold
attr title  "queue length, vector"
vector 213  mIPv6NetworkExample.NEMO.R.eth[1].queue.dataQueue  queueLength:vector  ETV
attr interpolationmode  sample-hold
attr title  "queue length, vector"
vector 233  mIPv6NetworkExample.NEMO.LFN6.eth[0].queue.pauseQueue  queueLength:vector  ETV
attr interpolationmode  sample-hold
attr title  "queue length, vector"
vector 237  mIPv6NetworkExample.NEMO.LFN6.eth[0].queue.dataQueue  queueLength:vector  ETV
attr interpolationmode  sample-hold
attr title  "queue length, vector"
vector 257  mIPv6NetworkExample.CN.eth[0].queue.pauseQueue  queueLength:vector  ETV
attr interpolationmode  sample-hold
attr title  "queue length, vector"
vector 261  mIPv6NetworkExample.CN.eth[0].queue.dataQueue  queueLength:vector  ETV
attr interpolationmode  sample-hold
attr title  "queue length, vector"
vector 262  mIPv6NetworkExample.AP_Home.wlan[0].mgmt  dataQueueLen:vector  ETV
attr interpolationmode  sample-hold
attr title  "data queue length, vector"
vector 284  mIPv6NetworkExample.AP_Home.eth[0].queue.pauseQueue  queueLength:vector  ETV
attr interpolationmode  sample-hold
attr title  "queue length, vector"
vector 288  mIPv6NetworkExample.AP_Home.eth[0].queue.dataQueue  queueLength:vector  ETV
attr interpolationmode  sample-hold
attr title  "queue length, vector"
vector 289  mIPv6NetworkExample.AP_1.wlan[0].mgmt  dataQueueLen:vector  ETV
attr interpolationmode  sample-hold
attr title  "data queue length, vector"
vector 311  mIPv6NetworkExample.AP_1.eth[0].queue.pauseQueue  queueLength:vector  ETV
attr interpolationmode  sample-hold
attr title  "queue length, vector"
vector 315  mIPv6NetworkExample.AP_1.eth[0].queue.dataQueue  queueLength:vector  ETV
attr interpolationmode  sample-hold
attr title  "queue length, vector"
vector 317  mIPv6NetworkExample.NEMO.R.wlan[0].mac  RadioState  ETV
attr enum  "IDLE=0, OFF=4, RECV=1, SLEEP=3, TRANSMIT=2"
attr enumname  RadioState
vector 316  mIPv6NetworkExample.NEMO.R.wlan[0].mac  State  ETV
attr enum  "BACKOFF=3, DEFER=1, IDLE=0, RECEIVE=8, WAITACK=4, WAITAIFS=2, WAITCTS=6, WAITMULTICAST=5, WAITSIFS=7"
attr enumname  Ieee80211Mac
vector 324  mIPv6NetworkExample.AP_Home.wlan[0].mac  RadioState  ETV
attr enum  "IDLE=0, OFF=4, RECV=1, SLEEP=3, TRANSMIT=2"
attr enumname  RadioState
vector 323  mIPv6NetworkExample.AP_Home.wlan[0].mac  State  ETV
attr enum  "BACKOFF=3, DEFER=1, IDLE=0, RECEIVE=8, WAITACK=4, WAITAIFS=2, WAITCTS=6, WAITMULTICAST=5, WAITSIFS=7"
attr enumname  Ieee80211Mac
vector 330  mIPv6NetworkExample.AP_1.wlan[0].mac  RadioState  ETV
attr enum  "IDLE=0, OFF=4, RECV=1, SLEEP=3, TRANSMIT=2"
attr enumname  RadioState
vector 329  mIPv6NetworkExample.AP_1.wlan[0].mac  State  ETV
attr enum  "BACKOFF=3, DEFER=1, IDLE=0, RECEIVE=8, WAITACK=4, WAITAIFS=2, WAITCTS=6, WAITMULTICAST=5, WAITSIFS=7"
attr enumname  Ieee80211Mac
vector 170  mIPv6NetworkExample.NEMO.R.wlan[0].radio  bitrate:vector  ETV
attr interpolationmode  sample-hold
attr title  "tx bitrate, vector"
attr unit  bps
vector 172  mIPv6NetworkExample.NEMO.R.wlan[0].radio  radioState:vector  ETV
attr interpolationmode  sample-hold
attr title  "radio state (enum), vector"
vector 171  mIPv6NetworkExample.NEMO.R.wlan[0].radio  channelNo:vector  ETV
attr interpolationmode  sample-hold
attr title  "channel no, vector"
vector 153  mIPv6NetworkExample.NEMO.radio  bitrate:vector  ETV
attr interpolationmode  sample-hold
attr title  "tx bitrate, vector"
attr unit  bps
vector 155  mIPv6NetworkExample.NEMO.radio  radioState:vector  ETV
attr interpolationmode  sample-hold
attr title  "radio state (enum), vector"
vector 154  mIPv6NetworkExample.NEMO.radio  channelNo:vector  ETV
attr interpolationmode  sample-hold
attr title  "channel no, vector"
vector 268  mIPv6NetworkExample.AP_Home.wlan[0].radio  bitrate:vector  ETV
attr interpolationmode  sample-hold
attr title  "tx bitrate, vector"
attr unit  bps
vector 270  mIPv6NetworkExample.AP_Home.wlan[0].radio  radioState:vector  ETV
attr interpolationmode  sample-hold
attr title  "radio state (enum), vector"
vector 269  mIPv6NetworkExample.AP_Home.wlan[0].radio  channelNo:vector  ETV
attr interpolationmode  sample-hold
attr title  "channel no, vector"
vector 295  mIPv6NetworkExample.AP_1.wlan[0].radio  bitrate:vector  ETV
attr interpolationmode  sample-hold
attr title  "tx bitrate, vector"
attr unit  bps
vector 297  mIPv6NetworkExample.AP_1.wlan[0].radio  radioState:vector  ETV
attr interpolationmode  sample-hold
attr title  "radio state (enum), vector"
vector 296  mIPv6NetworkExample.AP_1.wlan[0].radio  channelNo:vector  ETV
attr interpolationmode  sample-hold
attr title  "channel no, vector"
vector 293  mIPv6NetworkExample.AP_1.wlan[0].mac  rcvdPkFromHL:vector(packetBytes)  ETV
attr interpolationmode  none
attr source  packetReceivedFromUpper
attr title  "packets received from higher layer, vector(packetBytes)"
vector 292  mIPv6NetworkExample.AP_1.wlan[0].mac  sentDownPk:vector(packetBytes)  ETV
attr interpolationmode  none
attr source  packetSentToLower
attr title  "packets sent to lower layer, vector(packetBytes)"
vector 78  mIPv6NetworkExample.R_1.eth[1].encap  encapPk:vector(packetBytes)  ETV
attr interpolationmode  none
attr source  encapPk
attr title  "packets encapsulated, vector(packetBytes)"
vector 85  mIPv6NetworkExample.R_1.eth[1].queue.dataQueue  rcvdPk:vector(packetBytes)  ETV
attr interpolationmode  none
attr title  "received packets, vector(packetBytes)"
vector 87  mIPv6NetworkExample.R_1.eth[1].queue.dataQueue  queueingTime:vector  ETV
attr interpolationmode  none
attr title  "queueing time, vector"
vector 74  mIPv6NetworkExample.R_1.eth[1].mac  rxPkFromHL:vector(packetBytes)  ETV
attr interpolationmode  none
attr source  rxPkFromHL
attr title  "packet bytes from higher layer, vector(packetBytes)"
vector 69  mIPv6NetworkExample.R_1.eth[1].mac  txPk:vector(packetBytes)  ETV
attr interpolationmode  none
attr source  txPk
attr title  "packets transmitted, vector(packetBytes)"
vector 300  mIPv6NetworkExample.AP_1.eth[0].mac  rxPkOk:vector(packetBytes)  ETV
attr interpolationmode  none
attr source  rxPkOk
attr title  "packets received OK, vector(packetBytes)"
vector 301  mIPv6NetworkExample.AP_1.eth[0].mac  passedUpPk:vector(packetBytes)  ETV
attr interpolationmode  none
attr source  packetSentToUpper
attr title  "packets passed to higher layer, vector(packetBytes)"
vector 34  mIPv6NetworkExample.Home_Agent.eth[1].encap  encapPk:vector(packetBytes)  ETV
attr interpolationmode  none
attr source  encapPk
attr title  "packets encapsulated, vector(packetBytes)"
vector 41  mIPv6NetworkExample.Home_Agent.eth[1].queue.dataQueue  rcvdPk:vector(packetBytes)  ETV
attr interpolationmode  none
attr title  "received packets, vector(packetBytes)"
vector 43  mIPv6NetworkExample.Home_Agent.eth[1].queue.dataQueue  queueingTime:vector  ETV
attr interpolationmode  none
attr title  "queueing time, vector"
vector 30  mIPv6NetworkExample.Home_Agent.eth[1].mac  rxPkFromHL:vector(packetBytes)  ETV
attr interpolationmode  none
attr source  rxPkFromHL
attr title  "packet bytes from higher layer, vector(packetBytes)"
vector 25  mIPv6NetworkExample.Home_Agent.eth[1].mac  txPk:vector(packetBytes)  ETV
attr interpolationmode  none
attr source  txPk
attr title  "packets transmitted, vector(packetBytes)"
vector 273  mIPv6NetworkExample.AP_Home.eth[0].mac  rxPkOk:vector(packetBytes)  ETV
attr interpolationmode  none
attr source  rxPkOk
attr title  "packets received OK, vector(packetBytes)"
vector 274  mIPv6NetworkExample.AP_Home.eth[0].mac  passedUpPk:vector(packetBytes)  ETV
attr interpolationmode  none
attr source  packetSentToUpper
attr title  "packets passed to higher layer, vector(packetBytes)"
vector 266  mIPv6NetworkExample.AP_Home.wlan[0].mac  rcvdPkFromHL:vector(packetBytes)  ETV
attr interpolationmode  none
attr source  packetReceivedFromUpper
attr title  "packets received from higher layer, vector(packetBytes)"
vector 265  mIPv6NetworkExample.AP_Home.wlan[0].mac  sentDownPk:vector(packetBytes)  ETV
attr interpolationmode  none
attr source  packetSentToLower
attr title  "packets sent to lower layer, vector(packetBytes)"
vector 45  mIPv6NetworkExample.R_1.networkLayer.neighbourDiscovery  startDAD:vector  ETV
attr title  "DAD started, vector"
vector 58  mIPv6NetworkExample.R_1.eth[0].encap  encapPk:vector(packetBytes)  ETV
attr interpolationmode  none
attr source  encapPk
attr title  "packets encapsulated, vector(packetBytes)"
vector 65  mIPv6NetworkExample.R_1.eth[0].queue.dataQueue  rcvdPk:vector(packetBytes)  ETV
attr interpolationmode  none
attr title  "received packets, vector(packetBytes)"
vector 67  mIPv6NetworkExample.R_1.eth[0].queue.dataQueue  queueingTime:vector  ETV
attr interpolationmode  none
attr title  "queueing time, vector"
vector 54  mIPv6NetworkExample.R_1.eth[0].mac  rxPkFromHL:vector(packetBytes)  ETV
attr interpolationmode  none
attr source  rxPkFromHL
attr title  "packet bytes from higher layer, vector(packetBytes)"
vector 49  mIPv6NetworkExample.R_1.eth[0].mac  txPk:vector(packetBytes)  ETV
attr interpolationmode  none
attr source  txPk
attr title  "packets transmitted, vector(packetBytes)"
vector 94  mIPv6NetworkExample.R_2.eth[0].mac  rxPkOk:vector(packetBytes)  ETV
attr interpolationmode  none
attr source  rxPkOk
attr title  "packets received OK, vector(packetBytes)"
vector 95  mIPv6NetworkExample.R_2.eth[0].mac  passedUpPk:vector(packetBytes)  ETV
attr interpolationmode  none
attr source  packetSentToUpper
attr title  "packets passed to higher layer, vector(packetBytes)"
vector 103  mIPv6NetworkExample.R_2.eth[0].encap  decapPk:vector(packetBytes)  ETV
attr interpolationmode  none
attr source  decapPk
attr title  "packets decapsulated, vector(packetBytes)"
vector 332  mIPv6NetworkExample.AP_1.wlan[0].mac  "throughput AC0"  ETV
vector 1  mIPv6NetworkExample.Home_Agent.networkLayer.neighbourDiscovery  startDAD:vector  ETV
attr title  "DAD started, vector"
vector 14  mIPv6NetworkExample.Home_Agent.eth[0].encap  encapPk:vector(packetBytes)  ETV
attr interpolationmode  none
attr source  encapPk
attr title  "packets encapsulated, vector(packetBytes)"
vector 21  mIPv6NetworkExample.Home_Agent.eth[0].queue.dataQueue  rcvdPk:vector(packetBytes)  ETV
attr interpolationmode  none
attr title  "received packets, vector(packetBytes)"
vector 23  mIPv6NetworkExample.Home_Agent.eth[0].queue.dataQueue  queueingTime:vector  ETV
attr interpolationmode  none
attr title  "queueing time, vector"
vector 10  mIPv6NetworkExample.Home_Agent.eth[0].mac  rxPkFromHL:vector(packetBytes)  ETV
attr interpolationmode  none
attr source  rxPkFromHL
attr title  "packet bytes from higher layer, vector(packetBytes)"
vector 5  mIPv6NetworkExample.Home_Agent.eth[0].mac  txPk:vector(packetBytes)  ETV
attr interpolationmode  none
attr source  txPk
attr title  "packets transmitted, vector(packetBytes)"
vector 114  mIPv6NetworkExample.R_2.eth[1].mac  rxPkOk:vector(packetBytes)  ETV
attr interpolationmode  none
attr source  rxPkOk
attr title  "packets received OK, vector(packetBytes)"
vector 115  mIPv6NetworkExample.R_2.eth[1].mac  passedUpPk:vector(packetBytes)  ETV
attr interpolationmode  none
attr source  packetSentToUpper
attr title  "packets passed to higher layer, vector(packetBytes)"
vector 123  mIPv6NetworkExample.R_2.eth[1].encap  decapPk:vector(packetBytes)  ETV
attr interpolationmode  none
attr source  decapPk
attr title  "packets decapsulated, vector(packetBytes)"
vector 326  mIPv6NetworkExample.AP_Home.wlan[0].mac  "throughput AC0"  ETV
vector 161  mIPv6NetworkExample.NEMO.R.wlan[0].agent  sentRequest:vector  ETV
attr title  "sent requests, vector"
vector 319  mIPv6NetworkExample.NEMO.R.wlan[0].mac  "throughput AC0"  ETV
vector 157  mIPv6NetworkExample.NEMO.R.networkLayer.neighbourDiscovery  startDAD:vector  ETV
attr title  "DAD started, vector"
vector 183  mIPv6NetworkExample.NEMO.R.eth[0].encap  encapPk:vector(packetBytes)  ETV
attr interpolationmode  none
attr source  encapPk
attr title  "packets encapsulated, vector(packetBytes)"
vector 190  mIPv6NetworkExample.NEMO.R.eth[0].queue.dataQueue  rcvdPk:vector(packetBytes)  ETV
attr interpolationmode  none
attr title  "received packets, vector(packetBytes)"
vector 192  mIPv6NetworkExample.NEMO.R.eth[0].queue.dataQueue  queueingTime:vector  ETV
attr interpolationmode  none
attr title  "queueing time, vector"
vector 179  mIPv6NetworkExample.NEMO.R.eth[0].mac  rxPkFromHL:vector(packetBytes)  ETV
attr interpolationmode  none
attr source  rxPkFromHL
attr title  "packet bytes from higher layer, vector(packetBytes)"
vector 174  mIPv6NetworkExample.NEMO.R.eth[0].mac  txPk:vector(packetBytes)  ETV
attr interpolationmode  none
attr source  txPk
attr title  "packets transmitted, vector(packetBytes)"
vector 203  mIPv6NetworkExample.NEMO.R.eth[1].encap  encapPk:vector(packetBytes)  ETV
attr interpolationmode  none
attr source  encapPk
attr title  "packets encapsulated, vector(packetBytes)"
vector 210  mIPv6NetworkExample.NEMO.R.eth[1].queue.dataQueue  rcvdPk:vector(packetBytes)  ETV
attr interpolationmode  none
attr title  "received packets, vector(packetBytes)"
vector 212  mIPv6NetworkExample.NEMO.R.eth[1].queue.dataQueue  queueingTime:vector  ETV
attr interpolationmode  none
attr title  "queueing time, vector"
vector 199  mIPv6NetworkExample.NEMO.R.eth[1].mac  rxPkFromHL:vector(packetBytes)  ETV
attr interpolationmode  none
attr source  rxPkFromHL
attr title  "packet bytes from higher layer, vector(packetBytes)"
vector 194  mIPv6NetworkExample.NEMO.R.eth[1].mac  txPk:vector(packetBytes)  ETV
attr interpolationmode  none
attr source  txPk
attr title  "packets transmitted, vector(packetBytes)"
vector 219  mIPv6NetworkExample.NEMO.LFN6.eth[0].mac  rxPkOk:vector(packetBytes)  ETV
attr interpolationmode  none
attr source  rxPkOk
attr title  "packets received OK, vector(packetBytes)"
vector 220  mIPv6NetworkExample.NEMO.LFN6.eth[0].mac  passedUpPk:vector(packetBytes)  ETV
attr interpolationmode  none
attr source  packetSentToUpper
attr title  "packets passed to higher layer, vector(packetBytes)"
vector 228  mIPv6NetworkExample.NEMO.LFN6.eth[0].encap  decapPk:vector(packetBytes)  ETV
attr interpolationmode  none
attr source  decapPk
attr title  "packets decapsulated, vector(packetBytes)"
vector 89  mIPv6NetworkExample.R_2.networkLayer.neighbourDiscovery  startDAD:vector  ETV
attr title  "DAD started, vector"
vector 102  mIPv6NetworkExample.R_2.eth[0].encap  encapPk:vector(packetBytes)  ETV
attr interpolationmode  none
attr source  encapPk
attr title  "packets encapsulated, vector(packetBytes)"
vector 109  mIPv6NetworkExample.R_2.eth[0].queue.dataQueue  rcvdPk:vector(packetBytes)  ETV
attr interpolationmode  none
attr title  "received packets, vector(packetBytes)"
vector 111  mIPv6NetworkExample.R_2.eth[0].queue.dataQueue  queueingTime:vector  ETV
attr interpolationmode  none
attr title  "queueing time, vector"
vector 98  mIPv6NetworkExample.R_2.eth[0].mac  rxPkFromHL:vector(packetBytes)  ETV
attr interpolationmode  none
attr source  rxPkFromHL
attr title  "packet bytes from higher layer, vector(packetBytes)"
vector 93  mIPv6NetworkExample.R_2.eth[0].mac  txPk:vector(packetBytes)  ETV
attr interpolationmode  none
attr source  txPk
attr title  "packets transmitted, vector(packetBytes)"
vector 50  mIPv6NetworkExample.R_1.eth[0].mac  rxPkOk:vector(packetBytes)  ETV
attr interpolationmode  none
attr source  rxPkOk
attr title  "packets received OK, vector(packetBytes)"
vector 51  mIPv6NetworkExample.R_1.eth[0].mac  passedUpPk:vector(packetBytes)  ETV
attr interpolationmode  none
attr source  packetSentToUpper
attr title  "packets passed to higher layer, vector(packetBytes)"
vector 59  mIPv6NetworkExample.R_1.eth[0].encap  decapPk:vector(packetBytes)  ETV
attr interpolationmode  none
attr source  decapPk
attr title  "packets decapsulated, vector(packetBytes)"
vector 122  mIPv6NetworkExample.R_2.eth[1].encap  encapPk:vector(packetBytes)  ETV
attr interpolationmode  none
attr source  encapPk
attr title  "packets encapsulated, vector(packetBytes)"
vector 129  mIPv6NetworkExample.R_2.eth[1].queue.dataQueue  rcvdPk:vector(packetBytes)  ETV
attr interpolationmode  none
attr title  "received packets, vector(packetBytes)"
vector 131  mIPv6NetworkExample.R_2.eth[1].queue.dataQueue  queueingTime:vector  ETV
attr interpolationmode  none
attr title  "queueing time, vector"
vector 118  mIPv6NetworkExample.R_2.eth[1].mac  rxPkFromHL:vector(packetBytes)  ETV
attr interpolationmode  none
attr source  rxPkFromHL
attr title  "packet bytes from higher layer, vector(packetBytes)"
vector 113  mIPv6NetworkExample.R_2.eth[1].mac  txPk:vector(packetBytes)  ETV
attr interpolationmode  none
attr source  txPk
attr title  "packets transmitted, vector(packetBytes)"
vector 6  mIPv6NetworkExample.Home_Agent.eth[0].mac  rxPkOk:vector(packetBytes)  ETV
attr interpolationmode  none
attr source  rxPkOk
attr title  "packets received OK, vector(packetBytes)"
vector 7  mIPv6NetworkExample.Home_Agent.eth[0].mac  passedUpPk:vector(packetBytes)  ETV
attr interpolationmode  none
attr source  packetSentToUpper
attr title  "packets passed to higher layer, vector(packetBytes)"
vector 15  mIPv6NetworkExample.Home_Agent.eth[0].encap  decapPk:vector(packetBytes)  ETV
attr interpolationmode  none
attr source  decapPk
attr title  "packets decapsulated, vector(packetBytes)"
vector 142  mIPv6NetworkExample.R_2.eth[2].encap  encapPk:vector(packetBytes)  ETV
attr interpolationmode  none
attr source  encapPk
attr title  "packets encapsulated, vector(packetBytes)"
vector 149  mIPv6NetworkExample.R_2.eth[2].queue.dataQueue  rcvdPk:vector(packetBytes)  ETV
attr interpolationmode  none
attr title  "received packets, vector(packetBytes)"
vector 151  mIPv6NetworkExample.R_2.eth[2].queue.dataQueue  queueingTime:vector  ETV
attr interpolationmode  none
attr title  "queueing time, vector"
vector 138  mIPv6NetworkExample.R_2.eth[2].mac  rxPkFromHL:vector(packetBytes)  ETV
attr interpolationmode  none
attr source  rxPkFromHL
attr title  "packet bytes from higher layer, vector(packetBytes)"
vector 0  mIPv6NetworkExample.hub  pk:vector(packetBytes)  ETV
attr interpolationmode  none
attr source  pk
attr title  "packets, vector(packetBytes)"
vector 133  mIPv6NetworkExample.R_2.eth[2].mac  txPk:vector(packetBytes)  ETV
attr interpolationmode  none
attr source  txPk
attr title  "packets transmitted, vector(packetBytes)"
vector 243  mIPv6NetworkExample.CN.eth[0].mac  rxPkOk:vector(packetBytes)  ETV
attr interpolationmode  none
attr source  rxPkOk
attr title  "packets received OK, vector(packetBytes)"
vector 244  mIPv6NetworkExample.CN.eth[0].mac  passedUpPk:vector(packetBytes)  ETV
attr interpolationmode  none
attr source  packetSentToUpper
attr title  "packets passed to higher layer, vector(packetBytes)"
vector 252  mIPv6NetworkExample.CN.eth[0].encap  decapPk:vector(packetBytes)  ETV
attr interpolationmode  none
attr source  decapPk
attr title  "packets decapsulated, vector(packetBytes)"
vector 168  mIPv6NetworkExample.NEMO.R.wlan[0].mac  rcvdPkFromHL:vector(packetBytes)  ETV
attr interpolationmode  none
attr source  packetReceivedFromUpper
attr title  "packets received from higher layer, vector(packetBytes)"
vector 167  mIPv6NetworkExample.NEMO.R.wlan[0].mac  sentDownPk:vector(packetBytes)  ETV
attr interpolationmode  none
attr source  packetSentToLower
attr title  "packets sent to lower layer, vector(packetBytes)"
vector 238  mIPv6NetworkExample.CN.networkLayer.neighbourDiscovery  startDAD:vector  ETV
attr title  "DAD started, vector"
vector 251  mIPv6NetworkExample.CN.eth[0].encap  encapPk:vector(packetBytes)  ETV
attr interpolationmode  none
attr source  encapPk
attr title  "packets encapsulated, vector(packetBytes)"
vector 258  mIPv6NetworkExample.CN.eth[0].queue.dataQueue  rcvdPk:vector(packetBytes)  ETV
attr interpolationmode  none
attr title  "received packets, vector(packetBytes)"
vector 260  mIPv6NetworkExample.CN.eth[0].queue.dataQueue  queueingTime:vector  ETV
attr interpolationmode  none
attr title  "queueing time, vector"
vector 247  mIPv6NetworkExample.CN.eth[0].mac  rxPkFromHL:vector(packetBytes)  ETV
attr interpolationmode  none
attr source  rxPkFromHL
attr title  "packet bytes from higher layer, vector(packetBytes)"
vector 242  mIPv6NetworkExample.CN.eth[0].mac  txPk:vector(packetBytes)  ETV
attr interpolationmode  none
attr source  txPk
attr title  "packets transmitted, vector(packetBytes)"
vector 134  mIPv6NetworkExample.R_2.eth[2].mac  rxPkOk:vector(packetBytes)  ETV
attr interpolationmode  none
attr source  rxPkOk
attr title  "packets received OK, vector(packetBytes)"
vector 135  mIPv6NetworkExample.R_2.eth[2].mac  passedUpPk:vector(packetBytes)  ETV
attr interpolationmode  none
attr source  packetSentToUpper
attr title  "packets passed to higher layer, vector(packetBytes)"
vector 143  mIPv6NetworkExample.R_2.eth[2].encap  decapPk:vector(packetBytes)  ETV
attr interpolationmode  none
attr source  decapPk
attr title  "packets decapsulated, vector(packetBytes)"
vector 214  mIPv6NetworkExample.NEMO.LFN6.networkLayer.neighbourDiscovery  startDAD:vector  ETV
attr title  "DAD started, vector"
vector 227  mIPv6NetworkExample.NEMO.LFN6.eth[0].encap  encapPk:vector(packetBytes)  ETV
attr interpolationmode  none
attr source  encapPk
attr title  "packets encapsulated, vector(packetBytes)"
vector 234  mIPv6NetworkExample.NEMO.LFN6.eth[0].queue.dataQueue  rcvdPk:vector(packetBytes)  ETV
attr interpolationmode  none
attr title  "received packets, vector(packetBytes)"
vector 236  mIPv6NetworkExample.NEMO.LFN6.eth[0].queue.dataQueue  queueingTime:vector  ETV
attr interpolationmode  none
attr title  "queueing time, vector"
vector 223  mIPv6NetworkExample.NEMO.LFN6.eth[0].mac  rxPkFromHL:vector(packetBytes)  ETV
attr interpolationmode  none
attr source  rxPkFromHL
attr title  "packet bytes from higher layer, vector(packetBytes)"
vector 218  mIPv6NetworkExample.NEMO.LFN6.eth[0].mac  txPk:vector(packetBytes)  ETV
attr interpolationmode  none
attr source  txPk
attr title  "packets transmitted, vector(packetBytes)"
vector 195  mIPv6NetworkExample.NEMO.R.eth[1].mac  rxPkOk:vector(packetBytes)  ETV
attr interpolationmode  none
attr source  rxPkOk
attr title  "packets received OK, vector(packetBytes)"
vector 196  mIPv6NetworkExample.NEMO.R.eth[1].mac  passedUpPk:vector(packetBytes)  ETV
attr interpolationmode  none
attr source  packetSentToUpper
attr title  "packets passed to higher layer, vector(packetBytes)"
vector 204  mIPv6NetworkExample.NEMO.R.eth[1].encap  decapPk:vector(packetBytes)  ETV
attr interpolationmode  none
attr source  decapPk
attr title  "packets decapsulated, vector(packetBytes)"
vector 163  mIPv6NetworkExample.NEMO.R.wlan[0].agent  dropConfirm:vector  ETV
attr title  "dropped confirms, vector"
0	25890 48 308 687 0.177288943323 0.555561567044 2 72 72 144 10368
1	25938 46 160 160 0.135951689863 0.135951689863 2 1 1 2 2
5	25984 24 169 169 0.135967449863 0.135967449863 1 64 64 64 4096
6	26008 24 298 298 0.177284703323 0.177284703323 1 64 64 64 4096
7	26032 24 298 298 0.177284703323 0.177284703323 1 64 64 64 4096
10	26056 25 168 168 0.135961689863 0.135961689863 1 64 64 64 4096
14	26081 25 164 164 0.135961689863 0.135961689863 1 40 40 40 1600
15	26106 25 299 299 0.177284703323 0.177284703323 1 40 40 40 1600
20	26131 9 0 0 0 0 1 0 0 0 0
21	26140 25 166 166 0.135961689863 0.135961689863 1 64 64 64 4096
23	26165 24 166 166 0.135961689863 0.135961689863 1 0 0 0 0
24	26189 57 0 166 0 0.135961689863 3 0 1 1 1
25	26246 1248 37 2633 0.048289088905 2.46821691984 49 64 64 3136 200704
30	27494 1248 36 2632 0.048283328905 2.46821115984 49 64 64 3136 200704
34	28742 1248 32 2628 0.048283328905 2.46821115984 49 40 40 1960 78400
40	29990 9 0 0 0 0 1 0 0 0 0
41	29999 1248 34 2630 0.048283328905 2.46821115984 49 64 64 3136 200704
43	31247 1199 34 2630 0.048283328905 2.46821115984 49 0 0 0 0
44	32446 2407 0 2630 0 2.46821115984 99 0 1 49 49
45	34853 44 58 58 0.08354618519 0.08354618519 2 1 1 2 2
49	34897 23 67 67 0.08356194519 0.08356194519 1 64 64 64 4096
50	34920 25 286 286 0.177274703323 0.177274703323 1 64 64 64 4096
51	34945 25 286 286 0.177274703323 0.177274703323 1 64 64 64 4096
54	34970 23 66 66 0.08355618519 0.08355618519 1 64 64 64 4096
58	34993 23 62 62 0.08355618519 0.08355618519 1 40 40 40 1600
59	35016 25 287 287 0.177274703323 0.177274703323 1 40 40 40 1600
64	35041 9 0 0 0 0 1 0 0 0 0
65	35050 23 64 64 0.08355618519 0.08355618519 1 64 64 64 4096
67	35073 22 64 64 0.08355618519 0.08355618519 1 0 0 0 0
68	35095 53 0 64 0 0.08355618519 3 0 1 1 1
69	35148 1222 17 2613 0.038638840495 2.45366649172 48 64 64 3072 196608
74	36370 1222 16 2612 0.038633080495 2.45366073172 48 64 64 3072 196608
78	37592 1222 12 2608 0.038633080495 2.45366073172 48 40 40 1920 76800
84	38814 9 0 0 0 0 1 0 0 0 0
85	38823 1222 14 2610 0.038633080495 2.45366073172 48 64 64 3072 196608
87	40045 1174 14 2610 0.038633080495 2.45366073172 48 0 0 0 0
88	41219 2357 0 2610 0 2.45366073172 97 0 1 48 48
89	43576 72 275 275 0.177258843323 0.177258843323 3 1 1 3 3
93	43648 25 285 285 0.177274603323 0.177274603323 1 64 64 64 4096
94	43673 23 68 68 0.08356204519 0.08356204519 1 64 64 64 4096
95	43696 23 68 68 0.08356204519 0.08356204519 1 64 64 64 4096
98	43719 25 284 284 0.177268843323 0.177268843323 1 64 64 64 4096
102	43744 26 280 280 0.177268843323 0.177268843323 1 40 40 40 1600
103	43770 24 69 69 0.08356204519 0.08356204519 1 40 40 40 1600
108	43794 10 0 0 0 0 1 0 0 0 0
109	43804 26 282 282 0.177268843323 0.177268843323 1 64 64 64 4096
111	43830 25 282 282 0.177268843323 0.177268843323 1 0 0 0 0
112	43855 60 0 282 0 0.177268843323 3 0 1 1 1
113	43915 26 296 296 0.177284603323 0.177284603323 1 64 64 64 4096
114	43941 26 170 170 0.135967549863 0.135967549863 1 64 64 64 4096
115	43967 26 170 170 0.135967549863 0.135967549863 1 64 64 64 4096
118	43993 26 295 295 0.177278843323 0.177278843323 1 64 64 64 4096
122	44019 26 291 291 0.177278843323 0.177278843323 1 40 40 40 1600
123	44045 26 171 171 0.135967549863 0.135967549863 1 40 40 40 1600
128	44071 10 0 0 0 0 1 0 0 0 0
129	44081 26 293 293 0.177278843323 0.177278843323 1 64 64 64 4096
131	44107 25 293 293 0.177278843323 0.177278843323 1 0 0 0 0
132	44132 60 0 293 0 0.177278843323 3 0 1 1 1
133	44192 26 309 309 0.177294603323 0.177294603323 1 64 64 64 4096
134	44218 26 689 689 0.555567427044 0.555567427044 1 64 64 64 4096
135	44244 26 689 689 0.555567427044 0.555567427044 1 64 64 64 4096
138	44270 26 307 307 0.177288843323 0.177288843323 1 64 64 64 4096
142	44296 26 303 303 0.177288843323 0.177288843323 1 40 40 40 1600
143	44322 26 690 690 0.555567427044 0.555567427044 1 40 40 40 1600
148	44348 10 0 0 0 0 1 0 0 0 0
149	44358 26 305 305 0.177288843323 0.177288843323 1 64 64 64 4096
151	44384 25 305 305 0.177288843323 0.177288843323 1 0 0 0 0