version 2
run One-0-20150427-17:15:14-18173
attr configname One
attr datetime 20150427-17:15:14
attr experiment One
attr inifile omnetpp.ini
attr iterationvars ""
attr iterationvars2 $repetition=0
attr measurement ""
attr network mIPv6NetworkExample
attr processid 18173
attr repetition 0
attr replication #0
attr resultdir results
attr runnumber 0
attr seedset 1

vector 20  mIPv6NetworkExample.Home_Agent.eth[0].queue.pauseQueue  queueLength:vector  ETV
attr interpolationmode  sample-hold
attr title  "queue length, vector"
vector 24  mIPv6NetworkExample.Home_Agent.eth[0].queue.dataQueue  queueLength:vector  ETV
attr interpolationmode  sample-hold
attr title  "queue length, vector"
vector 40  mIPv6NetworkExample.Home_Agent.eth[1].queue.pauseQueue  queueLength:vector  ETV
attr interpolationmode  sample-hold
attr title  "queue length, vector"
vector 44  mIPv6NetworkExample.Home_Agent.eth[1].queue.dataQueue  queueLength:vector  ETV
attr interpolationmode  sample-hold
attr title  "queue length, vector"
vector 64  mIPv6NetworkExample.R_1.eth[0].queue.pauseQueue  queueLength:vector  ETV
attr interpolationmode  sample-hold
attr title  "queue length, vector"
vector 68  mIPv6NetworkExample.R_1.eth[0].queue.dataQueue  queueLength:vector  ETV
attr interpolationmode  sample-hold
attr title  "queue length, vector"
vector 84  mIPv6NetworkExample.R_1.eth[1].queue.pauseQueue  queueLength:vector  ETV
attr interpolationmode  sample-hold
attr title  "queue length, vector"
vector 88  mIPv6NetworkExample.R_1.eth[1].queue.dataQueue  queueLength:vector  ETV
attr interpolationmode  sample-hold
attr title  "queue length, vector"
vector 108  mIPv6NetworkExample.R_2.eth[0].queue.pauseQueue  queueLength:vector  ETV
attr interpolationmode  sample-hold
attr title  "queue length, vector"
vector 112  mIPv6NetworkExample.R_2.eth[0].queue.dataQueue  queueLength:vector  ETV
attr interpolationmode  sample-hold
attr title  "queue length, vector"
vector 128  mIPv6NetworkExample.R_2.eth[1].queue.pauseQueue  queueLength:vector  ETV
attr interpolationmode  sample-hold
attr title  "queue length, vector"
vector 132  mIPv6NetworkExample.R_2.eth[1].queue.dataQueue  queueLength:vector  ETV
attr interpolationmode  sample-hold
attr title  "queue length, vector"
vector 148  mIPv6NetworkExample.R_2.eth[2].queue.pauseQueue  queueLength:vector  ETV
attr interpolationmode  sample-hold
attr title  "queue length, vector"
vector 152  mIPv6NetworkExample.R_2.eth[2].queue.dataQueue  queueLength:vector  ETV
attr interpolationmode  sample-hold
attr title  "queue length, vector"
vector 164  mIPv6NetworkExample.NEMO.R.wlan[0].mgmt  dataQueueLen:vector  ETV
attr interpolationmode  sample-hold
attr title  "data queue length, vector"
vector 189  mIPv6NetworkExample.NEMO.R.eth[0].queue.pauseQueue  queueLength:vector  ETV
attr interpolationmode  sample-hold
attr title  "queue length, vector"
vector 193  mIPv6NetworkExample.NEMO.R.eth[0].queue.dataQueue  queueLength:vector  ETV
attr interpolationmode  sample-hold
attr title  "queue length, vector"
vector 209  mIPv6NetworkExample.NEMO.R.eth[1].queue.pauseQueue  queueLength:vector  ETV
attr interpolationmode  sample-hold
attr title  "queue length, vector"
vector 213  mIPv6NetworkExample.NEMO.R.eth[1].queue.dataQueue  queueLength:vector  ETV
attr interpolationmode  sample-hold
attr title  "queue length, vector"
vector 233  mIPv6NetworkExample.NEMO.LFN6.eth[0].queue.pauseQueue  queueLength:vector  ETV
attr interpolationmode  sample-hold
attr title  "queue length, vector"
vector 237  mIPv6NetworkExample.NEMO.LFN6.eth[0].queue.dataQueue  queueLength:vector  ETV
attr interpolationmode  sample-hold
attr title  "queue length, vector"
vector 257  mIPv6NetworkExample.CN.eth[0].queue.pauseQueue  queueLength:vector  ETV
attr interpolationmode  sample-hold
attr title  "queue length, vector"
vector 261  mIPv6NetworkExample.CN.eth[0].queue.dataQueue  queueLength:vector  ETV
attr interpolationmode  sample-hold
attr title  "queue length, vector"
vector 262  mIPv6NetworkExample.AP_Home.wlan[0].mgmt  dataQueueLen:vector  ETV
attr interpolationmode  sample-hold
attr title  "data queue length, vector"
vector 284  mIPv6NetworkExample.AP_Home.eth[0].queue.pauseQueue  queueLength:vector  ETV
attr interpolationmode  sample-hold
attr title  "queue length, vector"
vector 288  mIPv6NetworkExample.AP_Home.eth[0].queue.dataQueue  queueLength:vector  ETV
attr interpolationmode  sample-hold
attr title  "queue length, vector"
vector 289  mIPv6NetworkExample.AP_1.wlan[0].mgmt  dataQueueLen:vector  ETV
attr interpolationmode  sample-hold
attr title  "data queue length, vector"
vector 311  mIPv6NetworkExample.AP_1.eth[0].queue.pauseQueue  queueLength:vector  ETV
attr interpolationmode  sample-hold
attr title  "queue length, vector"
vector 315  mIPv6NetworkExample.AP_1.eth[0].queue.dataQueue  queueLength:vector  ETV
attr interpolationmode  sample-hold
attr title  "queue length, vector"
vector 317  mIPv6NetworkExample.NEMO.R.wlan[0].mac  RadioState  ETV
attr enum  "IDLE=0, OFF=4, RECV=1, SLEEP=3, TRANSMIT=2"
attr enumname  RadioState
vector 316  mIPv6NetworkExample.NEMO.R.wlan[0].mac  State  ETV
attr enum  "BACKOFF=3, DEFER=1, IDLE=0, RECEIVE=8, WAITACK=4, WAITAIFS=2, WAITCTS=6, WAITMULTICAST=5, WAITSIFS=7"
attr enumname  Ieee80211Mac
vector 324  mIPv6NetworkExample.AP_Home.wlan[0].mac  RadioState  ETV
attr enum  "IDLE=0, OFF=4, RECV=1, SLEEP=3, TRANSMIT=2"
attr enumname  RadioState
vector 323  mIPv6NetworkExample.AP_Home.wlan[0].mac  State  ETV
attr enum  "BACKOFF=3, DEFER=1, IDLE=0, RECEIVE=8, WAITACK=4, WAITAIFS=2, WAITCTS=6, WAITMULTICAST=5, WAITSIFS=7"
attr enumname  Ieee80211Mac
vector 330  mIPv6NetworkExample.AP_1.wlan[0].mac  RadioState  ETV
attr enum  "IDLE=0, OFF=4, RECV=1, SLEEP=3, TRANSMIT=2"
attr enumname  RadioState
vector 329  mIPv6NetworkExample.AP_1.wlan[0].mac  State  ETV
attr enum  "BACKOFF=3, DEFER=1, IDLE=0, RECEIVE=8, WAITACK=4, WAITAIFS=2, WAITCTS=6, WAITMULTICAST=5, WAITSIFS=7"
attr enumname  Ieee80211Mac
vector 170  mIPv6NetworkExample.NEMO.R.wlan[0].radio  bitrate:vector  ETV
attr interpolationmode  sample-hold
attr title  "tx bitrate, vector"
attr unit  bps
vector 172  mIPv6NetworkExample.NEMO.R.wlan[0].radio  radioState:vector  ETV
attr interpolationmode  sample-hold
attr title  "radio state (enum), vector"
vector 171  mIPv6NetworkExample.NEMO.R.wlan[0].radio  channelNo:vector  ETV
attr interpolationmode  sample-hold
attr title  "channel no, vector"
vector 153  mIPv6NetworkExample.NEMO.radio  bitrate:vector  ETV
attr interpolationmode  sample-hold
attr title  "tx bitrate, vector"
attr unit  bps
vector 155  mIPv6NetworkExample.NEMO.radio  radioState:vector  ETV
attr interpolationmode  sample-hold
attr title  "radio state (enum), vector"
vector 154  mIPv6NetworkExample.NEMO.radio  channelNo:vector  ETV
attr interpolationmode  sample-hold
attr title  "channel no, vector"
vector 268  mIPv6NetworkExample.AP_Home.wlan[0].radio  bitrate:vector  ETV
attr interpolationmode  sample-hold
attr title  "tx bitrate, vector"
attr unit  bps
vector 270  mIPv6NetworkExample.AP_Home.wlan[0].radio  radioState:vector  ETV
attr interpolationmode  sample-hold
attr title  "radio state (enum), vector"
vector 269  mIPv6NetworkExample.AP_Home.wlan[0].radio  channelNo:vector  ETV
attr interpolationmode  sample-hold
attr title  "channel no, vector"
vector 295  mIPv6NetworkExample.AP_1.wlan[0].radio  bitrate:vector  ETV
attr interpolationmode  sample-hold
attr title  "tx bitrate, vector"
attr unit  bps
vector 297  mIPv6NetworkExample.AP_1.wlan[0].radio  radioState:vector  ETV
attr interpolationmode  sample-hold
attr title  "radio state (enum), vector"
vector 296  mIPv6NetworkExample.AP_1.wlan[0].radio  channelNo:vector  ETV
attr interpolationmode  sample-hold
attr title  "channel no, vector"
vector 293  mIPv6NetworkExample.AP_1.wlan[0].mac  rcvdPkFromHL:vector(packetBytes)  ETV
attr interpolationmode  none
attr source  packetReceivedFromUpper
attr title  "packets received from higher layer, vector(packetBytes)"
vector 292  mIPv6NetworkExample.AP_1.wlan[0].mac  sentDownPk:vector(packetBytes)  ETV
attr interpolationmode  none
attr source  packetSentToLower
attr title  "packets sent to lower layer, vector(packetBytes)"
vector 78  mIPv6NetworkExample.R_1.eth[1].encap  encapPk:vector(packetBytes)  ETV
attr interpolationmode  none
attr source  encapPk
attr title  "packets encapsulated, vector(packetBytes)"
vector 85  mIPv6NetworkExample.R_1.eth[1].queue.dataQueue  rcvdPk:vector(packetBytes)  ETV
attr interpolationmode  none
attr title  "received packets, vector(packetBytes)"
vector 87  mIPv6NetworkExample.R_1.eth[1].queue.dataQueue  queueingTime:vector  ETV
attr interpolationmode  none
attr title  "queueing time, vector"
vector 74  mIPv6NetworkExample.R_1.eth[1].mac  rxPkFromHL:vector(packetBytes)  ETV
attr interpolationmode  none
attr source  rxPkFromHL
attr title  "packet bytes from higher layer, vector(packetBytes)"
vector 69  mIPv6NetworkExample.R_1.eth[1].mac  txPk:vector(packetBytes)  ETV
attr interpolationmode  none
attr source  txPk
attr title  "packets transmitted, vector(packetBytes)"
vector 300  mIPv6NetworkExample.AP_1.eth[0].mac  rxPkOk:vector(packetBytes)  ETV
attr interpolationmode  none
attr source  rxPkOk
attr title  "packets received OK, vector(packetBytes)"
vector 301  mIPv6NetworkExample.AP_1.eth[0].mac  passedUpPk:vector(packetBytes)  ETV
attr interpolationmode  none
attr source  packetSentToUpper
attr title  "packets passed to higher layer, vector(packetBytes)"
vector 34  mIPv6NetworkExample.Home_Agent.eth[1].encap  encapPk:vector(packetBytes)  ETV
attr interpolationmode  none
attr source  encapPk
attr title  "packets encapsulated, vector(packetBytes)"
vector 41  mIPv6NetworkExample.Home_Agent.eth[1].queue.dataQueue  rcvdPk:vector(packetBytes)  ETV
attr interpolationmode  none
attr title  "received packets, vector(packetBytes)"
vector 43  mIPv6NetworkExample.Home_Agent.eth[1].queue.dataQueue  queueingTime:vector  ETV
attr interpolationmode  none
attr title  "queueing time, vector"
vector 30  mIPv6NetworkExample.Home_Agent.eth[1].mac  rxPkFromHL:vector(packetBytes)  ETV
attr interpolationmode  none
attr source  rxPkFromHL
attr title  "packet bytes from higher layer, vector(packetBytes)"
vector 25  mIPv6NetworkExample.Home_Agent.eth[1].mac  txPk:vector(packetBytes)  ETV
attr interpolationmode  none
attr source  txPk
attr title  "packets transmitted, vector(packetBytes)"
vector 273  mIPv6NetworkExample.AP_Home.eth[0].mac  rxPkOk:vector(packetBytes)  ETV
attr interpolationmode  none
attr source  rxPkOk
attr title  "packets received OK, vector(packetBytes)"
vector 274  mIPv6NetworkExample.AP_Home.eth[0].mac  passedUpPk:vector(packetBytes)  ETV
attr interpolationmode  none
attr source  packetSentToUpper
attr title  "packets passed to higher layer, vector(packetBytes)"
vector 266  mIPv6NetworkExample.AP_Home.wlan[0].mac  rcvdPkFromHL:vector(packetBytes)  ETV
attr interpolationmode  none
attr source  packetReceivedFromUpper
attr title  "packets received from higher layer, vector(packetBytes)"
vector 265  mIPv6NetworkExample.AP_Home.wlan[0].mac  sentDownPk:vector(packetBytes)  ETV
attr interpolationmode  none
attr source  packetSentToLower
attr title  "packets sent to lower layer, vector(packetBytes)"
vector 45  mIPv6NetworkExample.R_1.networkLayer.neighbourDiscovery  startDAD:vector  ETV
attr title  "DAD started, vector"
vector 58  mIPv6NetworkExample.R_1.eth[0].encap  encapPk:vector(packetBytes)  ETV
attr interpolationmode  none
attr source  encapPk
attr title  "packets encapsulated, vector(packetBytes)"
vector 65  mIPv6NetworkExample.R_1.eth[0].queue.dataQueue  rcvdPk:vector(packetBytes)  ETV
attr interpolationmode  none
attr title  "received packets, vector(packetBytes)"
vector 67  mIPv6NetworkExample.R_1.eth[0].queue.dataQueue  queueingTime:vector  ETV
attr interpolationmode  none
attr title  "queueing time, vector"
vector 54  mIPv6NetworkExample.R_1.eth[0].mac  rxPkFromHL:vector(packetBytes)  ETV
attr interpolationmode  none
attr source  rxPkFromHL
attr title  "packet bytes from higher layer, vector(packetBytes)"
vector 49  mIPv6NetworkExample.R_1.eth[0].mac  txPk:vector(packetBytes)  ETV
attr interpolationmode  none
attr source  txPk
attr title  "packets transmitted, vector(packetBytes)"
vector 94  mIPv6NetworkExample.R_2.eth[0].mac  rxPkOk:vector(packetBytes)  ETV
attr interpolationmode  none
attr source  rxPkOk
attr title  "packets received OK, vector(packetBytes)"
vector 95  mIPv6NetworkExample.R_2.eth[0].mac  passedUpPk:vector(packetBytes)  ETV
attr interpolationmode  none
attr source  packetSentToUpper
attr title  "packets passed to higher layer, vector(packetBytes)"
vector 103  mIPv6NetworkExample.R_2.eth[0].encap  decapPk:vector(packetBytes)  ETV
attr interpolationmode  none
attr source  decapPk
attr title  "packets decapsulated, vector(packetBytes)"
vector 332  mIPv6NetworkExample.AP_1.wlan[0].mac  "throughput AC0"  ETV
vector 1  mIPv6NetworkExample.Home_Agent.networkLayer.neighbourDiscovery  startDAD:vector  ETV
attr title  "DAD started, vector"
vector 14  mIPv6NetworkExample.Home_Agent.eth[0].encap  encapPk:vector(packetBytes)  ETV
attr interpolationmode  none
attr source  encapPk
attr title  "packets encapsulated, vector(packetBytes)"
vector 21  mIPv6NetworkExample.Home_Agent.eth[0].queue.dataQueue  rcvdPk:vector(packetBytes)  ETV
attr interpolationmode  none
attr title  "received packets, vector(packetBytes)"
vector 23  mIPv6NetworkExample.Home_Agent.eth[0].queue.dataQueue  queueingTime:vector  ETV
attr interpolationmode  none
attr title  "queueing time, vector"
vector 10  mIPv6NetworkExample.Home_Agent.eth[0].mac  rxPkFromHL:vector(packetBytes)  ETV
attr interpolationmode  none
attr source  rxPkFromHL
attr title  "packet bytes from higher layer, vector(packetBytes)"
vector 5  mIPv6NetworkExample.Home_Agent.eth[0].mac  txPk:vector(packetBytes)  ETV
attr interpolationmode  none
attr source  txPk
attr title  "packets transmitted, vector(packetBytes)"
vector 114  mIPv6NetworkExample.R_2.eth[1].mac  rxPkOk:vector(packetBytes)  ETV
attr interpolationmode  none
attr source  rxPkOk
attr title  "packets received OK, vector(packetBytes)"
vector 115  mIPv6NetworkExample.R_2.eth[1].mac  passedUpPk:vector(packetBytes)  ETV
attr interpolationmode  none
attr source  packetSentToUpper
attr title  "packets passed to higher layer, vector(packetBytes)"
vector 123  mIPv6NetworkExample.R_2.eth[1].encap  decapPk:vector(packetBytes)  ETV
attr interpolationmode  none
attr source  decapPk
attr title  "packets decapsulated, vector(packetBytes)"
vector 326  mIPv6NetworkExample.AP_Home.wlan[0].mac  "throughput AC0"  ETV
vector 161  mIPv6NetworkExample.NEMO.R.wlan[0].agent  sentRequest:vector  ETV
attr title  "sent requests, vector"
vector 319  mIPv6NetworkExample.NEMO.R.wlan[0].mac  "throughput AC0"  ETV
vector 157  mIPv6NetworkExample.NEMO.R.networkLayer.neighbourDiscovery  startDAD:vector  ETV
attr title  "DAD started, vector"
vector 183  mIPv6NetworkExample.NEMO.R.eth[0].encap  encapPk:vector(packetBytes)  ETV
attr interpolationmode  none
attr source  encapPk
attr title  "packets encapsulated, vector(packetBytes)"
vector 190  mIPv6NetworkExample.NEMO.R.eth[0].queue.dataQueue  rcvdPk:vector(packetBytes)  ETV
attr interpolationmode  none
attr title  "received packets, vector(packetBytes)"
vector 192  mIPv6NetworkExample.NEMO.R.eth[0].queue.dataQueue  queueingTime:vector  ETV
attr interpolationmode  none
attr title  "queueing time, vector"
vector 179  mIPv6NetworkExample.NEMO.R.eth[0].mac  rxPkFromHL:vector(packetBytes)  ETV
attr interpolationmode  none
attr source  rxPkFromHL
attr title  "packet bytes from higher layer, vector(packetBytes)"
vector 174  mIPv6NetworkExample.NEMO.R.eth[0].mac  txPk:vector(packetBytes)  ETV
attr interpolationmode  none
attr source  txPk
attr title  "packets transmitted, vector(packetBytes)"
vector 203  mIPv6NetworkExample.NEMO.R.eth[1].encap  encapPk:vector(packetBytes)  ETV
attr interpolationmode  none
attr source  encapPk
attr title  "packets encapsulated, vector(packetBytes)"
vector 210  mIPv6NetworkExample.NEMO.R.eth[1].queue.dataQueue  rcvdPk:vector(packetBytes)  ETV
attr interpolationmode  none
attr title  "received packets, vector(packetBytes)"
vector 212  mIPv6NetworkExample.NEMO.R.eth[1].queue.dataQueue  queueingTime:vector  ETV
attr interpolationmode  none
attr title  "queueing time, vector"
vector 199  mIPv6NetworkExample.NEMO.R.eth[1].mac  rxPkFromHL:vector(packetBytes)  ETV
attr interpolationmode  none
attr source  rxPkFromHL
attr title  "packet bytes from higher layer, vector(packetBytes)"
vector 194  mIPv6NetworkExample.NEMO.R.eth[1].mac  txPk:vector(packetBytes)  ETV
attr interpolationmode  none
attr source  txPk
attr title  "packets transmitted, vector(packetBytes)"
vector 219  mIPv6NetworkExample.NEMO.LFN6.eth[0].mac  rxPkOk:vector(packetBytes)  ETV
attr interpolationmode  none
attr source  rxPkOk
attr title  "packets received OK, vector(packetBytes)"
vector 220  mIPv6NetworkExample.NEMO.LFN6.eth[0].mac  passedUpPk:vector(packetBytes)  ETV
attr interpolationmode  none
attr source  packetSentToUpper
attr title  "packets passed to higher layer, vector(packetBytes)"
vector 228  mIPv6NetworkExample.NEMO.LFN6.eth[0].encap  decapPk:vector(packetBytes)  ETV
attr interpolationmode  none
attr source  decapPk
attr title  "packets decapsulated, vector(packetBytes)"
vector 89  mIPv6NetworkExample.R_2.networkLayer.neighbourDiscovery  startDAD:vector  ETV
attr title  "DAD started, vector"
vector 102  mIPv6NetworkExample.R_2.eth[0].encap  encapPk:vector(packetBytes)  ETV
attr interpolationmode  none
attr source  encapPk
attr title  "packets encapsulated, vector(packetBytes)"
vector 109  mIPv6NetworkExample.R_2.eth[0].queue.dataQueue  rcvdPk:vector(packetBytes)  ETV
attr interpolationmode  none
attr title  "received packets, vector(packetBytes)"
vector 111  mIPv6NetworkExample.R_2.eth[0].queue.dataQueue  queueingTime:vector  ETV
attr interpolationmode  none
attr title  "queueing time, vector"
vector 98  mIPv6NetworkExample.R_2.eth[0].mac  rxPkFromHL:vector(packetBytes)  ETV
attr interpolationmode  none
attr source  rxPkFromHL
attr title  "packet bytes from higher layer, vector(packetBytes)"
vector 93  mIPv6NetworkExample.R_2.eth[0].mac  txPk:vector(packetBytes)  ETV
attr interpolationmode  none
attr source  txPk
attr title  "packets transmitted, vector(packetBytes)"
vector 50  mIPv6NetworkExample.R_1.eth[0].mac  rxPkOk:vector(packetBytes)  ETV
attr interpolationmode  none
attr source  rxPkOk
attr title  "packets received OK, vector(packetBytes)"
vector 51  mIPv6NetworkExample.R_1.eth[0].mac  passedUpPk:vector(packetBytes)  ETV
attr interpolationmode  none
attr source  packetSentToUpper
attr title  "packets passed to higher layer, vector(packetBytes)"
vector 59  mIPv6NetworkExample.R_1.eth[0].encap  decapPk:vector(packetBytes)  ETV
attr interpolationmode  none
attr source  decapPk
attr title  "packets decapsulated, vector(packetBytes)"
vector 122  mIPv6NetworkExample.R_2.eth[1].encap  encapPk:vector(packetBytes)  ETV
attr interpolationmode  none
attr source  encapPk
attr title  "packets encapsulated, vector(packetBytes)"
vector 129  mIPv6NetworkExample.R_2.eth[1].queue.dataQueue  rcvdPk:vector(packetBytes)  ETV
attr interpolationmode  none
attr title  "received packets, vector(packetBytes)"
vector 131  mIPv6NetworkExample.R_2.eth[1].queue.dataQueue  queueingTime:vector  ETV
attr interpolationmode  none
attr title  "queueing time, vector"
vector 118  mIPv6NetworkExample.R_2.eth[1].mac  rxPkFromHL:vector(packetBytes)  ETV
attr interpolationmode  none
attr source  rxPkFromHL
attr title  "packet bytes from higher layer, vector(packetBytes)"
vector 113  mIPv6NetworkExample.R_2.eth[1].mac  txPk:vector(packetBytes)  ETV
attr interpolationmode  none
attr source  txPk
attr title  "packets transmitted, vector(packetBytes)"
vector 6  mIPv6NetworkExample.Home_Agent.eth[0].mac  rxPkOk:vector(packetBytes)  ETV
attr interpolationmode  none
attr source  rxPkOk
attr title  "packets received OK, vector(packetBytes)"
vector 7  mIPv6NetworkExample.Home_Agent.eth[0].mac  passedUpPk:vector(packetBytes)  ETV
attr interpolationmode  none
attr source  packetSentToUpper
attr title  "packets passed to higher layer, vector(packetBytes)"
vector 15  mIPv6NetworkExample.Home_Agent.eth[0].encap  decapPk:vector(packetBytes)  ETV
attr interpolationmode  none
attr source  decapPk
attr title  "packets decapsulated, vector(packetBytes)"
vector 142  mIPv6NetworkExample.R_2.eth[2].encap  encapPk:vector(packetBytes)  ETV
attr interpolationmode  none
attr source  encapPk
attr title  "packets encapsulated, vector(packetBytes)"
vector 149  mIPv6NetworkExample.R_2.eth[2].queue.dataQueue  rcvdPk:vector(packetBytes)  ETV
attr interpolationmode  none
attr title  "received packets, vector(packetBytes)"
vector 151  mIPv6NetworkExample.R_2.eth[2].queue.dataQueue  queueingTime:vector  ETV
attr interpolationmode  none
attr title  "queueing time, vector"
vector 138  mIPv6NetworkExample.R_2.eth[2].mac  rxPkFromHL:vector(packetBytes)  ETV
attr interpolationmode  none
attr source  rxPkFromHL
attr title  "packet bytes from higher layer, vector(packetBytes)"
vector 0  mIPv6NetworkExample.hub  pk:vector(packetBytes)  ETV
attr interpolationmode  none
attr source  pk
attr title  "packets, vector(packetBytes)"
vector 133  mIPv6NetworkExample.R_2.eth[2].mac  txPk:vector(packetBytes)  ETV
attr interpolationmode  none
attr source  txPk
attr title  "packets transmitted, vector(packetBytes)"
vector 243  mIPv6NetworkExample.CN.eth[0].mac  rxPkOk:vector(packetBytes)  ETV
attr interpolationmode  none
attr source  rxPkOk
attr title  "packets received OK, vector(packetBytes)"
vector 244  mIPv6NetworkExample.CN.eth[0].mac  passedUpPk:vector(packetBytes)  ETV
attr interpolationmode  none
attr source  packetSentToUpper
attr title  "packets passed to higher layer, vector(packetBytes)"
vector 252  mIPv6NetworkExample.CN.eth[0].encap  decapPk:vector(packetBytes)  ETV
attr interpolationmode  none
attr source  decapPk
attr title  "packets decapsulated, vector(packetBytes)"
vector 168  mIPv6NetworkExample.NEMO.R.wlan[0].mac  rcvdPkFromHL:vector(packetBytes)  ETV
attr interpolationmode  none
attr source  packetReceivedFromUpper
attr title  "packets received from higher layer, vector(packetBytes)"
vector 167  mIPv6NetworkExample.NEMO.R.wlan[0].mac  sentDownPk:vector(packetBytes)  ETV
attr interpolationmode  none
attr source  packetSentToLower
attr title  "packets sent to lower layer, vector(packetBytes)"
vector 238  mIPv6NetworkExample.CN.networkLayer.neighbourDiscovery  startDAD:vector  ETV
attr title  "DAD started, vector"
vector 251  mIPv6NetworkExample.CN.eth[0].encap  encapPk:vector(packetBytes)  ETV
attr interpolationmode  none
attr source  encapPk
attr title  "packets encapsulated, vector(packetBytes)"
vector 258  mIPv6NetworkExample.CN.eth[0].queue.dataQueue  rcvdPk:vector(packetBytes)  ETV
attr interpolationmode  none
attr title  "received packets, vector(packetBytes)"
vector 260  mIPv6NetworkExample.CN.eth[0].queue.dataQueue  queueingTime:vector  ETV
attr interpolationmode  none
attr title  "queueing time, vector"
vector 247  mIPv6NetworkExample.CN.eth[0].mac  rxPkFromHL:vector(packetBytes)  ETV
attr interpolationmode  none
attr source  rxPkFromHL
attr title  "packet bytes from higher layer, vector(packetBytes)"
vector 242  mIPv6NetworkExample.CN.eth[0].mac  txPk:vector(packetBytes)  ETV
attr interpolationmode  none
attr source  txPk
attr title  "packets transmitted, vector(packetBytes)"
vector 134  mIPv6NetworkExample.R_2.eth[2].mac  rxPkOk:vector(packetBytes)  ETV
attr interpolationmode  none
attr source  rxPkOk
attr title  "packets received OK, vector(packetBytes)"
vector 135  mIPv6NetworkExample.R_2.eth[2].mac  passedUpPk:vector(packetBytes)  ETV
attr interpolationmode  none
attr source  packetSentToUpper
attr title  "packets passed to higher layer, vector(packetBytes)"
vector 143  mIPv6NetworkExample.R_2.eth[2].encap  decapPk:vector(packetBytes)  ETV
attr interpolationmode  none
attr source  decapPk
attr title  "packets decapsulated, vector(packetBytes)"
vector 214  mIPv6NetworkExample.NEMO.LFN6.networkLayer.neighbourDiscovery  startDAD:vector  ETV
attr title  "DAD started, vector"
vector 227  mIPv6NetworkExample.NEMO.LFN6.eth[0].encap  encapPk:vector(packetBytes)  ETV
attr interpolationmode  none
attr source  encapPk
attr title  "packets encapsulated, vector(packetBytes)"
vector 234  mIPv6NetworkExample.NEMO.LFN6.eth[0].queue.dataQueue  rcvdPk:vector(packetBytes)  ETV
attr interpolationmode  none
attr title  "received packets, vector(packetBytes)"
vector 236  mIPv6NetworkExample.NEMO.LFN6.eth[0].queue.dataQueue  queueingTime:vector  ETV
attr interpolationmode  none
attr title  "queueing time, vector"
vector 223  mIPv6NetworkExample.NEMO.LFN6.eth[0].mac  rxPkFromHL:vector(packetBytes)  ETV
attr interpolationmode  none
attr source  rxPkFromHL
attr title  "packet bytes from higher layer, vector(packetBytes)"
vector 218  mIPv6NetworkExample.NEMO.LFN6.eth[0].mac  txPk:vector(packetBytes)  ETV
attr interpolationmode  none
attr source  txPk
attr title  "packets transmitted, vector(packetBytes)"
vector 195  mIPv6NetworkExample.NEMO.R.eth[1].mac  rxPkOk:vector(packetBytes)  ETV
attr interpolationmode  none
attr source  rxPkOk
attr title  "packets received OK, vector(packetBytes)"
vector 196  mIPv6NetworkExample.NEMO.R.eth[1].mac  passedUpPk:vector(packetBytes)  ETV
attr interpolationmode  none
attr source  packetSentToUpper
attr title  "packets passed to higher layer, vector(packetBytes)"
vector 204  mIPv6NetworkExample.NEMO.R.eth[1].encap  decapPk:vector(packetBytes)  ETV
attr interpolationmode  none
attr source  decapPk
attr title  "packets decapsulated, vector(packetBytes)"
vector 163  mIPv6NetworkExample.NEMO.R.wlan[0].agent  dropConfirm:vector  ETV
attr title  "dropped confirms, vector"
0	308	0.177288943323	72
0	687	0.555561567044	72
1	160	0.135951689863	1
1	160	0.135951689863	1
5	169	0.135967449863	64
6	298	0.177284703323	64
7	298	0.177284703323	64
10	168	0.135961689863	64
14	164	0.135961689863	40
15	299	0.177284703323	40
20	0	0	0
21	166	0.135961689863	64
23	166	0.135961689863	0
24	0	0	0
24	166	0.135961689863	1
24	166	0.135961689863	0
25	37	0.048289088905	64
25	119	0.089630092354	64
25	180	0.135977449863	64
25	202	0.149936702176	64
25	332	0.217392048294	64
25	373	0.263940795639	64
25	438	0.308403386163	64
25	479	0.349172809372	64
25	536	0.40531804347	64
25	580	0.446437143837	64
25	638	0.50686028345	64
25	702	0.556203704778	64
25	759	0.604496991787	64
25	800	0.661222383988	64
25	861	0.724267506974	64
25	938	0.786548413971	64
25	988	0.845505979435	64
25	1045	0.912535290812	64
25	1089	0.946539464575	64
25	1138	0.98118812819	64
25	1190	1.024370982507	64
25	1239	1.071360180536	64
25	1288	1.136604610141	64
25	1340	1.197514157481	64
25	1389	1.238850452359	64
25	1446	1.30197133704	64
25	1505	1.37085527147	64
25	1559	1.420410201445	64
25	1604	1.469813970381	64
25	1690	1.522703475176	64
25	1744	1.592702493729	64
25	1794	1.651930818777	64
25	1845	1.692922039241	64
25	1894	1.737151202889	64
25	1951	1.772337538249	64
25	2000	1.83583603537	64
25	2050	1.893515135732	64
25	2082	1.926102063462	64
25	2122	1.967736961284	64
25	2180	2.004058307717	64
25	2238	2.070852724342	64
25	2287	2.113405488822	64
25	2328	2.149555097082	64
25	2388	2.206710418732	64
25	2409	2.246333231319	64
25	2465	2.288433162978	64
25	2516	2.34697734474	64
25	2574	2.414117298599	64
25	2633	2.46821691984	64
30	36	0.048283328905	64
30	118	0.089624332354	64
30	179	0.135971689863	64
30	201	0.149930942176	64
30	331	0.217386288294	64
30	372	0.263935035639	64
30	437	0.308397626163	64
30	478	0.349167049372	64
30	535	0.40531228347	64
30	579	0.446431383837	64
30	637	0.50685452345	64
30	701	0.556197944778	64
30	758	0.604491231787	64
30	799	0.661216623988	64
30	860	0.724261746974	64
30	937	0.786542653971	64
30	987	0.845500219435	64
30	1044	0.912529530812	64
30	1088	0.946533704575	64
30	1137	0.98118236819	64
30	1189	1.024365222507	64
30	1238	1.071354420536	64
30	1287	1.136598850141	64
30	1339	1.197508397481	64
30	1388	1.238844692359	64
30	1445	1.30196557704	64
30	1504	1.37084951147	64
30	1558	1.420404441445	64
30	1603	1.469808210381	64
30	1689	1.522697715176	64
30	1743	1.592696733729	64
30	1793	1.651925058777	64
30	1844	1.692916279241	64
30	1893	1.737145442889	64
30	1950	1.772331778249	64
30	1999	1.83583027537	64
30	2049	1.893509375732	64
30	2081	1.926096303462	64
30	2121	1.967731201284	64
30	2179	2.004052547717	64
30	2237	2.070846964342	64
30	2286	2.113399728822	64
30	2327	2.149549337082	64
30	2387	2.206704658732	64
30	2408	2.246327471319	64
30	2464	2.288427402978	64
30	2515	2.34697158474	64
30	2573	2.414111538599	64
30	2632	2.46821115984	64
34	32	0.048283328905	40
34	114	0.089624332354	40
34	175	0.135971689863	40
34	197	0.149930942176	40
34	327	0.217386288294	40
34	368	0.263935035639	40
34	433	0.308397626163	40
34	474	0.349167049372	40
34	531	0.40531228347	40
34	575	0.446431383837	40
34	633	0.50685452345	40
34	697	0.556197944778	40
34	754	0.604491231787	40
34	795	0.661216623988	40
34	856	0.724261746974	40
34	933	0.786542653971	40
34	983	0.845500219435	40
34	1040	0.912529530812	40
34	1084	0.946533704575	40
34	1133	0.98118236819	40
34	1185	1.024365222507	40
34	1234	1.071354420536	40
34	1283	1.136598850141	40
34	1335	1.197508397481	40
34	1384	1.238844692359	40
34	1441	1.30196557704	40
34	1500	1.37084951147	40
34	1554	1.420404441445	40
34	1599	1.469808210381	40
34	1685	1.522697715176	40
34	1739	1.592696733729	40
34	1789	1.651925058777	40
34	1840	1.692916279241	40
34	1889	1.737145442889	40
34	1946	1.772331778249	40
34	1995	1.83583027537	40
34	2045	1.893509375732	40
34	2077	1.926096303462	40
34	2117	1.967731201284	40
34	2175	2.004052547717	40
34	2233	2.070846964342	40
34	2282	2.113399728822	40
34	2323	2.149549337082	40
34	2383	2.206704658732	40
34	2404	2.246327471319	40
34	2460	2.288427402978	40
34	2511	2.34697158474	40
34	2569	2.414111538599	40
34	2628	2.46821115984	40
40	0	0	0